/*--------------------------------*- C++ -*----------------------------------*\
| =========                 |                                                 |
| \\      /  F ield         | OpenFOAM: The Open Source CFD Toolbox           |
|  \\    /   O peration     | Version:  v1806                                 |
|   \\  /    A nd           | Web:      www.OpenFOAM.com                      |
|    \\/     M anipulation  |                                                 |
\*---------------------------------------------------------------------------*/
FoamFile
{
    version     2.0;
    format      ascii;
    class       volScalarField;
    location    "6";
    object      p;
}
// * * * * * * * * * * * * * * * * * * * * * * * * * * * * * * * * * * * * * //

dimensions      [0 0 0 0 0 0 0];


internalField   nonuniform List<scalar> 
10000
(
-5.55121
-5.43361
-5.31841
-5.20561
-5.09521
-4.98721
-4.88161
-4.77841
-4.67761
-4.57921
-4.48321
-4.38961
-4.29841
-4.20961
-4.12321
-4.03921
-3.95761
-3.87841
-3.80161
-3.72721
-3.65521
-3.58561
-3.51841
-3.45361
-3.39121
-3.33121
-3.27361
-3.21841
-3.16561
-3.11521
-3.06721
-3.02161
-2.97841
-2.93761
-2.89921
-2.86321
-2.82961
-2.79841
-2.76961
-2.74321
-2.71921
-2.69761
-2.67841
-2.66161
-2.64721
-2.63521
-2.62561
-2.61841
-2.61361
-2.61121
-2.61121
-2.61361
-2.61841
-2.62561
-2.63521
-2.64721
-2.66161
-2.67841
-2.69761
-2.71921
-2.74321
-2.76961
-2.79841
-2.82961
-2.86321
-2.89921
-2.93761
-2.97841
-3.02161
-3.06721
-3.11521
-3.16561
-3.21841
-3.27361
-3.33121
-3.39121
-3.45361
-3.51841
-3.58561
-3.65521
-3.72721
-3.80161
-3.87841
-3.95761
-4.03921
-4.12321
-4.20961
-4.29841
-4.38961
-4.48321
-4.57921
-4.67761
-4.77841
-4.88161
-4.98721
-5.09521
-5.20561
-5.31841
-5.43361
-5.55121
-5.43361
-5.31601
-5.20081
-5.08801
-4.97761
-4.86961
-4.76401
-4.66081
-4.56001
-4.46161
-4.36561
-4.27201
-4.18081
-4.09201
-4.00561
-3.92161
-3.84001
-3.76081
-3.68401
-3.60961
-3.53761
-3.46801
-3.40081
-3.33601
-3.27361
-3.21361
-3.15601
-3.10081
-3.04801
-2.99761
-2.94961
-2.90401
-2.86081
-2.82001
-2.78161
-2.74561
-2.71201
-2.68081
-2.65201
-2.62561
-2.60161
-2.58001
-2.56081
-2.54401
-2.52961
-2.51761
-2.50801
-2.50081
-2.49601
-2.49361
-2.49361
-2.49601
-2.50081
-2.50801
-2.51761
-2.52961
-2.54401
-2.56081
-2.58001
-2.60161
-2.62561
-2.65201
-2.68081
-2.71201
-2.74561
-2.78161
-2.82001
-2.86081
-2.90401
-2.94961
-2.99761
-3.04801
-3.10081
-3.15601
-3.21361
-3.27361
-3.33601
-3.40081
-3.46801
-3.53761
-3.60961
-3.68401
-3.76081
-3.84001
-3.92161
-4.00561
-4.09201
-4.18081
-4.27201
-4.36561
-4.46161
-4.56001
-4.66081
-4.76401
-4.86961
-4.97761
-5.08801
-5.20081
-5.31601
-5.43361
-5.31841
-5.20081
-5.08561
-4.97281
-4.86241
-4.75441
-4.64881
-4.54561
-4.44481
-4.34641
-4.25041
-4.15681
-4.06561
-3.97681
-3.89041
-3.80641
-3.72481
-3.64561
-3.56881
-3.49441
-3.42241
-3.35281
-3.28561
-3.22081
-3.15841
-3.09841
-3.04081
-2.98561
-2.93281
-2.88241
-2.83441
-2.78881
-2.74561
-2.70481
-2.66641
-2.63041
-2.59681
-2.56561
-2.53681
-2.51041
-2.48641
-2.46481
-2.44561
-2.42881
-2.41441
-2.40241
-2.39281
-2.38561
-2.38081
-2.37841
-2.37841
-2.38081
-2.38561
-2.39281
-2.40241
-2.41441
-2.42881
-2.44561
-2.46481
-2.48641
-2.51041
-2.53681
-2.56561
-2.59681
-2.63041
-2.66641
-2.70481
-2.74561
-2.78881
-2.83441
-2.88241
-2.93281
-2.98561
-3.04081
-3.09841
-3.15841
-3.22081
-3.28561
-3.35281
-3.42241
-3.49441
-3.56881
-3.64561
-3.72481
-3.80641
-3.89041
-3.97681
-4.06561
-4.15681
-4.25041
-4.34641
-4.44481
-4.54561
-4.64881
-4.75441
-4.86241
-4.97281
-5.08561
-5.20081
-5.31841
-5.20561
-5.08801
-4.97281
-4.86001
-4.74961
-4.64161
-4.53601
-4.43281
-4.33201
-4.23361
-4.13761
-4.04401
-3.95281
-3.86401
-3.77761
-3.69361
-3.61201
-3.53281
-3.45601
-3.38161
-3.30961
-3.24001
-3.17281
-3.10801
-3.04561
-2.98561
-2.92801
-2.87281
-2.82001
-2.76961
-2.72161
-2.67601
-2.63281
-2.59201
-2.55361
-2.51761
-2.48401
-2.45281
-2.42401
-2.39761
-2.37361
-2.35201
-2.33281
-2.31601
-2.30161
-2.28961
-2.28001
-2.27281
-2.26801
-2.26561
-2.26561
-2.26801
-2.27281
-2.28001
-2.28961
-2.30161
-2.31601
-2.33281
-2.35201
-2.37361
-2.39761
-2.42401
-2.45281
-2.48401
-2.51761
-2.55361
-2.59201
-2.63281
-2.67601
-2.72161
-2.76961
-2.82001
-2.87281
-2.92801
-2.98561
-3.04561
-3.10801
-3.17281
-3.24001
-3.30961
-3.38161
-3.45601
-3.53281
-3.61201
-3.69361
-3.77761
-3.86401
-3.95281
-4.04401
-4.13761
-4.23361
-4.33201
-4.43281
-4.53601
-4.64161
-4.74961
-4.86001
-4.97281
-5.08801
-5.20561
-5.09521
-4.97761
-4.86241
-4.74961
-4.63921
-4.53121
-4.42561
-4.32241
-4.22161
-4.12321
-4.02721
-3.93361
-3.84241
-3.75361
-3.66721
-3.58321
-3.50161
-3.42241
-3.34561
-3.27121
-3.19921
-3.12961
-3.06241
-2.99761
-2.93521
-2.87521
-2.81761
-2.76241
-2.70961
-2.65921
-2.61121
-2.56561
-2.52241
-2.48161
-2.44321
-2.40721
-2.37361
-2.34241
-2.31361
-2.28721
-2.26321
-2.24161
-2.22241
-2.20561
-2.19121
-2.17921
-2.16961
-2.16241
-2.15761
-2.15521
-2.15521
-2.15761
-2.16241
-2.16961
-2.17921
-2.19121
-2.20561
-2.22241
-2.24161
-2.26321
-2.28721
-2.31361
-2.34241
-2.37361
-2.40721
-2.44321
-2.48161
-2.52241
-2.56561
-2.61121
-2.65921
-2.70961
-2.76241
-2.81761
-2.87521
-2.93521
-2.99761
-3.06241
-3.12961
-3.19921
-3.27121
-3.34561
-3.42241
-3.50161
-3.58321
-3.66721
-3.75361
-3.84241
-3.93361
-4.02721
-4.12321
-4.22161
-4.32241
-4.42561
-4.53121
-4.63921
-4.74961
-4.86241
-4.97761
-5.09521
-4.98721
-4.86961
-4.75441
-4.64161
-4.53121
-4.42321
-4.31761
-4.21441
-4.11361
-4.01521
-3.91921
-3.82561
-3.73441
-3.64561
-3.55921
-3.47521
-3.39361
-3.31441
-3.23761
-3.16321
-3.09121
-3.02161
-2.95441
-2.88961
-2.82721
-2.76721
-2.70961
-2.65441
-2.60161
-2.55121
-2.50321
-2.45761
-2.41441
-2.37361
-2.33521
-2.29921
-2.26561
-2.23441
-2.20561
-2.17921
-2.15521
-2.13361
-2.11441
-2.09761
-2.08321
-2.07121
-2.06161
-2.05441
-2.04961
-2.04721
-2.04721
-2.04961
-2.05441
-2.06161
-2.07121
-2.08321
-2.09761
-2.11441
-2.13361
-2.15521
-2.17921
-2.20561
-2.23441
-2.26561
-2.29921
-2.33521
-2.37361
-2.41441
-2.45761
-2.50321
-2.55121
-2.60161
-2.65441
-2.70961
-2.76721
-2.82721
-2.88961
-2.95441
-3.02161
-3.09121
-3.16321
-3.23761
-3.31441
-3.39361
-3.47521
-3.55921
-3.64561
-3.73441
-3.82561
-3.91921
-4.01521
-4.11361
-4.21441
-4.31761
-4.42321
-4.53121
-4.64161
-4.75441
-4.86961
-4.98721
-4.88161
-4.76401
-4.64881
-4.53601
-4.42561
-4.31761
-4.21201
-4.10881
-4.00801
-3.90961
-3.81361
-3.72001
-3.62881
-3.54001
-3.45361
-3.36961
-3.28801
-3.20881
-3.13201
-3.05761
-2.98561
-2.91601
-2.84881
-2.78401
-2.72161
-2.66161
-2.60401
-2.54881
-2.49601
-2.44561
-2.39761
-2.35201
-2.30881
-2.26801
-2.22961
-2.19361
-2.16001
-2.12881
-2.10001
-2.07361
-2.04961
-2.02801
-2.00881
-1.99201
-1.97761
-1.96561
-1.95601
-1.94881
-1.94401
-1.94161
-1.94161
-1.94401
-1.94881
-1.95601
-1.96561
-1.97761
-1.99201
-2.00881
-2.02801
-2.04961
-2.07361
-2.10001
-2.12881
-2.16001
-2.19361
-2.22961
-2.26801
-2.30881
-2.35201
-2.39761
-2.44561
-2.49601
-2.54881
-2.60401
-2.66161
-2.72161
-2.78401
-2.84881
-2.91601
-2.98561
-3.05761
-3.13201
-3.20881
-3.28801
-3.36961
-3.45361
-3.54001
-3.62881
-3.72001
-3.81361
-3.90961
-4.00801
-4.10881
-4.21201
-4.31761
-4.42561
-4.53601
-4.64881
-4.76401
-4.88161
-4.77841
-4.66081
-4.54561
-4.43281
-4.32241
-4.21441
-4.10881
-4.00561
-3.90481
-3.80641
-3.71041
-3.61681
-3.52561
-3.43681
-3.35041
-3.26641
-3.18481
-3.10561
-3.02881
-2.95441
-2.88241
-2.81281
-2.74561
-2.68081
-2.61841
-2.55841
-2.50081
-2.44561
-2.39281
-2.34241
-2.29441
-2.24881
-2.20561
-2.16481
-2.12641
-2.09041
-2.05681
-2.02561
-1.99681
-1.97041
-1.94641
-1.92481
-1.90561
-1.88881
-1.87441
-1.86241
-1.85281
-1.84561
-1.84081
-1.83841
-1.83841
-1.84081
-1.84561
-1.85281
-1.86241
-1.87441
-1.88881
-1.90561
-1.92481
-1.94641
-1.97041
-1.99681
-2.02561
-2.05681
-2.09041
-2.12641
-2.16481
-2.20561
-2.24881
-2.29441
-2.34241
-2.39281
-2.44561
-2.50081
-2.55841
-2.61841
-2.68081
-2.74561
-2.81281
-2.88241
-2.95441
-3.02881
-3.10561
-3.18481
-3.26641
-3.35041
-3.43681
-3.52561
-3.61681
-3.71041
-3.80641
-3.90481
-4.00561
-4.10881
-4.21441
-4.32241
-4.43281
-4.54561
-4.66081
-4.77841
-4.67761
-4.56001
-4.44481
-4.33201
-4.22161
-4.11361
-4.00801
-3.90481
-3.80401
-3.70561
-3.60961
-3.51601
-3.42481
-3.33601
-3.24961
-3.16561
-3.08401
-3.00481
-2.92801
-2.85361
-2.78161
-2.71201
-2.64481
-2.58001
-2.51761
-2.45761
-2.40001
-2.34481
-2.29201
-2.24161
-2.19361
-2.14801
-2.10481
-2.06401
-2.02561
-1.98961
-1.95601
-1.92481
-1.89601
-1.86961
-1.84561
-1.82401
-1.80481
-1.78801
-1.77361
-1.76161
-1.75201
-1.74481
-1.74001
-1.73761
-1.73761
-1.74001
-1.74481
-1.75201
-1.76161
-1.77361
-1.78801
-1.80481
-1.82401
-1.84561
-1.86961
-1.89601
-1.92481
-1.95601
-1.98961
-2.02561
-2.06401
-2.10481
-2.14801
-2.19361
-2.24161
-2.29201
-2.34481
-2.40001
-2.45761
-2.51761
-2.58001
-2.64481
-2.71201
-2.78161
-2.85361
-2.92801
-3.00481
-3.08401
-3.16561
-3.24961
-3.33601
-3.42481
-3.51601
-3.60961
-3.70561
-3.80401
-3.90481
-4.00801
-4.11361
-4.22161
-4.33201
-4.44481
-4.56001
-4.67761
-4.57921
-4.46161
-4.34641
-4.23361
-4.12321
-4.01521
-3.90961
-3.80641
-3.70561
-3.60721
-3.51121
-3.41761
-3.32641
-3.23761
-3.15121
-3.06721
-2.98561
-2.90641
-2.82961
-2.75521
-2.68321
-2.61361
-2.54641
-2.48161
-2.41921
-2.35921
-2.30161
-2.24641
-2.19361
-2.14321
-2.09521
-2.04961
-2.00641
-1.96561
-1.92721
-1.89121
-1.85761
-1.82641
-1.79761
-1.77121
-1.74721
-1.72561
-1.70641
-1.68961
-1.67521
-1.66321
-1.65361
-1.64641
-1.64161
-1.63921
-1.63921
-1.64161
-1.64641
-1.65361
-1.66321
-1.67521
-1.68961
-1.70641
-1.72561
-1.74721
-1.77121
-1.79761
-1.82641
-1.85761
-1.89121
-1.92721
-1.96561
-2.00641
-2.04961
-2.09521
-2.14321
-2.19361
-2.24641
-2.30161
-2.35921
-2.41921
-2.48161
-2.54641
-2.61361
-2.68321
-2.75521
-2.82961
-2.90641
-2.98561
-3.06721
-3.15121
-3.23761
-3.32641
-3.41761
-3.51121
-3.60721
-3.70561
-3.80641
-3.90961
-4.01521
-4.12321
-4.23361
-4.34641
-4.46161
-4.57921
-4.48321
-4.36561
-4.25041
-4.13761
-4.02721
-3.91921
-3.81361
-3.71041
-3.60961
-3.51121
-3.41521
-3.32161
-3.23041
-3.14161
-3.05521
-2.97121
-2.88961
-2.81041
-2.73361
-2.65921
-2.58721
-2.51761
-2.45041
-2.38561
-2.32321
-2.26321
-2.20561
-2.15041
-2.09761
-2.04721
-1.99921
-1.95361
-1.91041
-1.86961
-1.83121
-1.79521
-1.76161
-1.73041
-1.70161
-1.67521
-1.65121
-1.62961
-1.61041
-1.59361
-1.57921
-1.56721
-1.55761
-1.55041
-1.54561
-1.54321
-1.54321
-1.54561
-1.55041
-1.55761
-1.56721
-1.57921
-1.59361
-1.61041
-1.62961
-1.65121
-1.67521
-1.70161
-1.73041
-1.76161
-1.79521
-1.83121
-1.86961
-1.91041
-1.95361
-1.99921
-2.04721
-2.09761
-2.15041
-2.20561
-2.26321
-2.32321
-2.38561
-2.45041
-2.51761
-2.58721
-2.65921
-2.73361
-2.81041
-2.88961
-2.97121
-3.05521
-3.14161
-3.23041
-3.32161
-3.41521
-3.51121
-3.60961
-3.71041
-3.81361
-3.91921
-4.02721
-4.13761
-4.25041
-4.36561
-4.48321
-4.38961
-4.27201
-4.15681
-4.04401
-3.93361
-3.82561
-3.72001
-3.61681
-3.51601
-3.41761
-3.32161
-3.22801
-3.13681
-3.04801
-2.96161
-2.87761
-2.79601
-2.71681
-2.64001
-2.56561
-2.49361
-2.42401
-2.35681
-2.29201
-2.22961
-2.16961
-2.11201
-2.05681
-2.00401
-1.95361
-1.90561
-1.86001
-1.81681
-1.77601
-1.73761
-1.70161
-1.66801
-1.63681
-1.60801
-1.58161
-1.55761
-1.53601
-1.51681
-1.50001
-1.48561
-1.47361
-1.46401
-1.45681
-1.45201
-1.44961
-1.44961
-1.45201
-1.45681
-1.46401
-1.47361
-1.48561
-1.50001
-1.51681
-1.53601
-1.55761
-1.58161
-1.60801
-1.63681
-1.66801
-1.70161
-1.73761
-1.77601
-1.81681
-1.86001
-1.90561
-1.95361
-2.00401
-2.05681
-2.11201
-2.16961
-2.22961
-2.29201
-2.35681
-2.42401
-2.49361
-2.56561
-2.64001
-2.71681
-2.79601
-2.87761
-2.96161
-3.04801
-3.13681
-3.22801
-3.32161
-3.41761
-3.51601
-3.61681
-3.72001
-3.82561
-3.93361
-4.04401
-4.15681
-4.27201
-4.38961
-4.29841
-4.18081
-4.06561
-3.95281
-3.84241
-3.73441
-3.62881
-3.52561
-3.42481
-3.32641
-3.23041
-3.13681
-3.04561
-2.95681
-2.87041
-2.78641
-2.70481
-2.62561
-2.54881
-2.47441
-2.40241
-2.33281
-2.26561
-2.20081
-2.13841
-2.07841
-2.02081
-1.96561
-1.91281
-1.86241
-1.81441
-1.76881
-1.72561
-1.68481
-1.64641
-1.61041
-1.57681
-1.54561
-1.51681
-1.49041
-1.46641
-1.44481
-1.42561
-1.40881
-1.39441
-1.38241
-1.37281
-1.36561
-1.36081
-1.35841
-1.35841
-1.36081
-1.36561
-1.37281
-1.38241
-1.39441
-1.40881
-1.42561
-1.44481
-1.46641
-1.49041
-1.51681
-1.54561
-1.57681
-1.61041
-1.64641
-1.68481
-1.72561
-1.76881
-1.81441
-1.86241
-1.91281
-1.96561
-2.02081
-2.07841
-2.13841
-2.20081
-2.26561
-2.33281
-2.40241
-2.47441
-2.54881
-2.62561
-2.70481
-2.78641
-2.87041
-2.95681
-3.04561
-3.13681
-3.23041
-3.32641
-3.42481
-3.52561
-3.62881
-3.73441
-3.84241
-3.95281
-4.06561
-4.18081
-4.29841
-4.20961
-4.09201
-3.97681
-3.86401
-3.75361
-3.64561
-3.54001
-3.43681
-3.33601
-3.23761
-3.14161
-3.04801
-2.95681
-2.86801
-2.78161
-2.69761
-2.61601
-2.53681
-2.46001
-2.38561
-2.31361
-2.24401
-2.17681
-2.11201
-2.04961
-1.98961
-1.93201
-1.87681
-1.82401
-1.77361
-1.72561
-1.68001
-1.63681
-1.59601
-1.55761
-1.52161
-1.48801
-1.45681
-1.42801
-1.40161
-1.37761
-1.35601
-1.33681
-1.32001
-1.30561
-1.29361
-1.28401
-1.27681
-1.27201
-1.26961
-1.26961
-1.27201
-1.27681
-1.28401
-1.29361
-1.30561
-1.32001
-1.33681
-1.35601
-1.37761
-1.40161
-1.42801
-1.45681
-1.48801
-1.52161
-1.55761
-1.59601
-1.63681
-1.68001
-1.72561
-1.77361
-1.82401
-1.87681
-1.93201
-1.98961
-2.04961
-2.11201
-2.17681
-2.24401
-2.31361
-2.38561
-2.46001
-2.53681
-2.61601
-2.69761
-2.78161
-2.86801
-2.95681
-3.04801
-3.14161
-3.23761
-3.33601
-3.43681
-3.54001
-3.64561
-3.75361
-3.86401
-3.97681
-4.09201
-4.20961
-4.12321
-4.00561
-3.89041
-3.77761
-3.66721
-3.55921
-3.45361
-3.35041
-3.24961
-3.15121
-3.05521
-2.96161
-2.87041
-2.78161
-2.69521
-2.61121
-2.52961
-2.45041
-2.37361
-2.29921
-2.22721
-2.15761
-2.09041
-2.02561
-1.96321
-1.90321
-1.84561
-1.79041
-1.73761
-1.68721
-1.63921
-1.59361
-1.55041
-1.50961
-1.47121
-1.43521
-1.40161
-1.37041
-1.34161
-1.31521
-1.29121
-1.26961
-1.25041
-1.23361
-1.21921
-1.20721
-1.19761
-1.19041
-1.18561
-1.18321
-1.18321
-1.18561
-1.19041
-1.19761
-1.20721
-1.21921
-1.23361
-1.25041
-1.26961
-1.29121
-1.31521
-1.34161
-1.37041
-1.40161
-1.43521
-1.47121
-1.50961
-1.55041
-1.59361
-1.63921
-1.68721
-1.73761
-1.79041
-1.84561
-1.90321
-1.96321
-2.02561
-2.09041
-2.15761
-2.22721
-2.29921
-2.37361
-2.45041
-2.52961
-2.61121
-2.69521
-2.78161
-2.87041
-2.96161
-3.05521
-3.15121
-3.24961
-3.35041
-3.45361
-3.55921
-3.66721
-3.77761
-3.89041
-4.00561
-4.12321
-4.03921
-3.92161
-3.80641
-3.69361
-3.58321
-3.47521
-3.36961
-3.26641
-3.16561
-3.06721
-2.97121
-2.87761
-2.78641
-2.69761
-2.61121
-2.52721
-2.44561
-2.36641
-2.28961
-2.21521
-2.14321
-2.07361
-2.00641
-1.94161
-1.87921
-1.81921
-1.76161
-1.70641
-1.65361
-1.60321
-1.55521
-1.50961
-1.46641
-1.42561
-1.38721
-1.35121
-1.31761
-1.28641
-1.25761
-1.23121
-1.20721
-1.18561
-1.16641
-1.14961
-1.13521
-1.12321
-1.11361
-1.10641
-1.10161
-1.09921
-1.09921
-1.10161
-1.10641
-1.11361
-1.12321
-1.13521
-1.14961
-1.16641
-1.18561
-1.20721
-1.23121
-1.25761
-1.28641
-1.31761
-1.35121
-1.38721
-1.42561
-1.46641
-1.50961
-1.55521
-1.60321
-1.65361
-1.70641
-1.76161
-1.81921
-1.87921
-1.94161
-2.00641
-2.07361
-2.14321
-2.21521
-2.28961
-2.36641
-2.44561
-2.52721
-2.61121
-2.69761
-2.78641
-2.87761
-2.97121
-3.06721
-3.16561
-3.26641
-3.36961
-3.47521
-3.58321
-3.69361
-3.80641
-3.92161
-4.03921
-3.95761
-3.84001
-3.72481
-3.61201
-3.50161
-3.39361
-3.28801
-3.18481
-3.08401
-2.98561
-2.88961
-2.79601
-2.70481
-2.61601
-2.52961
-2.44561
-2.36401
-2.28481
-2.20801
-2.13361
-2.06161
-1.99201
-1.92481
-1.86001
-1.79761
-1.73761
-1.68001
-1.62481
-1.57201
-1.52161
-1.47361
-1.42801
-1.38481
-1.34401
-1.30561
-1.26961
-1.23601
-1.20481
-1.17601
-1.14961
-1.12561
-1.10401
-1.08481
-1.06801
-1.05361
-1.04161
-1.03201
-1.02481
-1.02001
-1.01761
-1.01761
-1.02001
-1.02481
-1.03201
-1.04161
-1.05361
-1.06801
-1.08481
-1.10401
-1.12561
-1.14961
-1.17601
-1.20481
-1.23601
-1.26961
-1.30561
-1.34401
-1.38481
-1.42801
-1.47361
-1.52161
-1.57201
-1.62481
-1.68001
-1.73761
-1.79761
-1.86001
-1.92481
-1.99201
-2.06161
-2.13361
-2.20801
-2.28481
-2.36401
-2.44561
-2.52961
-2.61601
-2.70481
-2.79601
-2.88961
-2.98561
-3.08401
-3.18481
-3.28801
-3.39361
-3.50161
-3.61201
-3.72481
-3.84001
-3.95761
-3.87841
-3.76081
-3.64561
-3.53281
-3.42241
-3.31441
-3.20881
-3.10561
-3.00481
-2.90641
-2.81041
-2.71681
-2.62561
-2.53681
-2.45041
-2.36641
-2.28481
-2.20561
-2.12881
-2.05441
-1.98241
-1.91281
-1.84561
-1.78081
-1.71841
-1.65841
-1.60081
-1.54561
-1.49281
-1.44241
-1.39441
-1.34881
-1.30561
-1.26481
-1.22641
-1.19041
-1.15681
-1.12561
-1.09681
-1.07041
-1.04641
-1.02481
-1.00561
-0.98881
-0.97441
-0.96241
-0.95281
-0.94561
-0.94081
-0.93841
-0.93841
-0.94081
-0.94561
-0.95281
-0.96241
-0.97441
-0.98881
-1.00561
-1.02481
-1.04641
-1.07041
-1.09681
-1.12561
-1.15681
-1.19041
-1.22641
-1.26481
-1.30561
-1.34881
-1.39441
-1.44241
-1.49281
-1.54561
-1.60081
-1.65841
-1.71841
-1.78081
-1.84561
-1.91281
-1.98241
-2.05441
-2.12881
-2.20561
-2.28481
-2.36641
-2.45041
-2.53681
-2.62561
-2.71681
-2.81041
-2.90641
-3.00481
-3.10561
-3.20881
-3.31441
-3.42241
-3.53281
-3.64561
-3.76081
-3.87841
-3.80161
-3.68401
-3.56881
-3.45601
-3.34561
-3.23761
-3.13201
-3.02881
-2.92801
-2.82961
-2.73361
-2.64001
-2.54881
-2.46001
-2.37361
-2.28961
-2.20801
-2.12881
-2.05201
-1.97761
-1.90561
-1.83601
-1.76881
-1.70401
-1.64161
-1.58161
-1.52401
-1.46881
-1.41601
-1.36561
-1.31761
-1.27201
-1.22881
-1.18801
-1.14961
-1.11361
-1.08001
-1.04881
-1.02001
-0.99361
-0.96961
-0.94801
-0.92881
-0.91201
-0.89761
-0.88561
-0.87601
-0.86881
-0.86401
-0.86161
-0.86161
-0.86401
-0.86881
-0.87601
-0.88561
-0.89761
-0.91201
-0.92881
-0.94801
-0.96961
-0.99361
-1.02001
-1.04881
-1.08001
-1.11361
-1.14961
-1.18801
-1.22881
-1.27201
-1.31761
-1.36561
-1.41601
-1.46881
-1.52401
-1.58161
-1.64161
-1.70401
-1.76881
-1.83601
-1.90561
-1.97761
-2.05201
-2.12881
-2.20801
-2.28961
-2.37361
-2.46001
-2.54881
-2.64001
-2.73361
-2.82961
-2.92801
-3.02881
-3.13201
-3.23761
-3.34561
-3.45601
-3.56881
-3.68401
-3.80161
-3.72721
-3.60961
-3.49441
-3.38161
-3.27121
-3.16321
-3.05761
-2.95441
-2.85361
-2.75521
-2.65921
-2.56561
-2.47441
-2.38561
-2.29921
-2.21521
-2.13361
-2.05441
-1.97761
-1.90321
-1.83121
-1.76161
-1.69441
-1.62961
-1.56721
-1.50721
-1.44961
-1.39441
-1.34161
-1.29121
-1.24321
-1.19761
-1.15441
-1.11361
-1.07521
-1.03921
-1.00561
-0.97441
-0.94561
-0.91921
-0.89521
-0.87361
-0.85441
-0.83761
-0.82321
-0.81121
-0.801611
-0.794411
-0.789611
-0.787211
-0.787211
-0.789611
-0.794411
-0.801611
-0.81121
-0.82321
-0.83761
-0.85441
-0.87361
-0.89521
-0.91921
-0.94561
-0.97441
-1.00561
-1.03921
-1.07521
-1.11361
-1.15441
-1.19761
-1.24321
-1.29121
-1.34161
-1.39441
-1.44961
-1.50721
-1.56721
-1.62961
-1.69441
-1.76161
-1.83121
-1.90321
-1.97761
-2.05441
-2.13361
-2.21521
-2.29921
-2.38561
-2.47441
-2.56561
-2.65921
-2.75521
-2.85361
-2.95441
-3.05761
-3.16321
-3.27121
-3.38161
-3.49441
-3.60961
-3.72721
-3.65521
-3.53761
-3.42241
-3.30961
-3.19921
-3.09121
-2.98561
-2.88241
-2.78161
-2.68321
-2.58721
-2.49361
-2.40241
-2.31361
-2.22721
-2.14321
-2.06161
-1.98241
-1.90561
-1.83121
-1.75921
-1.68961
-1.62241
-1.55761
-1.49521
-1.43521
-1.37761
-1.32241
-1.26961
-1.21921
-1.17121
-1.12561
-1.08241
-1.04161
-1.00321
-0.96721
-0.93361
-0.90241
-0.87361
-0.84721
-0.82321
-0.80161
-0.78241
-0.765611
-0.751211
-0.739211
-0.729611
-0.722411
-0.717611
-0.715211
-0.715211
-0.717611
-0.722411
-0.729611
-0.739211
-0.751211
-0.765611
-0.78241
-0.80161
-0.82321
-0.84721
-0.87361
-0.90241
-0.93361
-0.96721
-1.00321
-1.04161
-1.08241
-1.12561
-1.17121
-1.21921
-1.26961
-1.32241
-1.37761
-1.43521
-1.49521
-1.55761
-1.62241
-1.68961
-1.75921
-1.83121
-1.90561
-1.98241
-2.06161
-2.14321
-2.22721
-2.31361
-2.40241
-2.49361
-2.58721
-2.68321
-2.78161
-2.88241
-2.98561
-3.09121
-3.19921
-3.30961
-3.42241
-3.53761
-3.65521
-3.58561
-3.46801
-3.35281
-3.24001
-3.12961
-3.02161
-2.91601
-2.81281
-2.71201
-2.61361
-2.51761
-2.42401
-2.33281
-2.24401
-2.15761
-2.07361
-1.99201
-1.91281
-1.83601
-1.76161
-1.68961
-1.62001
-1.55281
-1.48801
-1.42561
-1.36561
-1.30801
-1.25281
-1.20001
-1.14961
-1.10161
-1.05601
-1.01281
-0.97201
-0.93361
-0.89761
-0.86401
-0.83281
-0.80401
-0.77761
-0.753611
-0.732011
-0.712811
-0.696011
-0.681611
-0.669611
-0.660011
-0.652811
-0.648011
-0.645611
-0.645611
-0.648011
-0.652811
-0.660011
-0.669611
-0.681611
-0.696011
-0.712811
-0.732011
-0.753611
-0.77761
-0.80401
-0.83281
-0.86401
-0.89761
-0.93361
-0.97201
-1.01281
-1.05601
-1.10161
-1.14961
-1.20001
-1.25281
-1.30801
-1.36561
-1.42561
-1.48801
-1.55281
-1.62001
-1.68961
-1.76161
-1.83601
-1.91281
-1.99201
-2.07361
-2.15761
-2.24401
-2.33281
-2.42401
-2.51761
-2.61361
-2.71201
-2.81281
-2.91601
-3.02161
-3.12961
-3.24001
-3.35281
-3.46801
-3.58561
-3.51841
-3.40081
-3.28561
-3.17281
-3.06241
-2.95441
-2.84881
-2.74561
-2.64481
-2.54641
-2.45041
-2.35681
-2.26561
-2.17681
-2.09041
-2.00641
-1.92481
-1.84561
-1.76881
-1.69441
-1.62241
-1.55281
-1.48561
-1.42081
-1.35841
-1.29841
-1.24081
-1.18561
-1.13281
-1.08241
-1.03441
-0.98881
-0.94561
-0.90481
-0.86641
-0.83041
-0.79681
-0.76561
-0.736811
-0.710411
-0.686411
-0.664811
-0.645611
-0.628811
-0.614411
-0.602411
-0.592811
-0.585611
-0.580811
-0.578411
-0.578411
-0.580811
-0.585611
-0.592811
-0.602411
-0.614411
-0.628811
-0.645611
-0.664811
-0.686411
-0.710411
-0.736811
-0.76561
-0.79681
-0.83041
-0.86641
-0.90481
-0.94561
-0.98881
-1.03441
-1.08241
-1.13281
-1.18561
-1.24081
-1.29841
-1.35841
-1.42081
-1.48561
-1.55281
-1.62241
-1.69441
-1.76881
-1.84561
-1.92481
-2.00641
-2.09041
-2.17681
-2.26561
-2.35681
-2.45041
-2.54641
-2.64481
-2.74561
-2.84881
-2.95441
-3.06241
-3.17281
-3.28561
-3.40081
-3.51841
-3.45361
-3.33601
-3.22081
-3.10801
-2.99761
-2.88961
-2.78401
-2.68081
-2.58001
-2.48161
-2.38561
-2.29201
-2.20081
-2.11201
-2.02561
-1.94161
-1.86001
-1.78081
-1.70401
-1.62961
-1.55761
-1.48801
-1.42081
-1.35601
-1.29361
-1.23361
-1.17601
-1.12081
-1.06801
-1.01761
-0.96961
-0.92401
-0.88081
-0.84001
-0.80161
-0.76561
-0.73201
-0.700811
-0.672011
-0.645611
-0.621611
-0.600011
-0.580811
-0.564011
-0.549611
-0.537611
-0.528011
-0.520811
-0.516011
-0.513611
-0.513611
-0.516011
-0.520811
-0.528011
-0.537611
-0.549611
-0.564011
-0.580811
-0.600011
-0.621611
-0.645611
-0.672011
-0.700811
-0.73201
-0.76561
-0.80161
-0.84001
-0.88081
-0.92401
-0.96961
-1.01761
-1.06801
-1.12081
-1.17601
-1.23361
-1.29361
-1.35601
-1.42081
-1.48801
-1.55761
-1.62961
-1.70401
-1.78081
-1.86001
-1.94161
-2.02561
-2.11201
-2.20081
-2.29201
-2.38561
-2.48161
-2.58001
-2.68081
-2.78401
-2.88961
-2.99761
-3.10801
-3.22081
-3.33601
-3.45361
-3.39121
-3.27361
-3.15841
-3.04561
-2.93521
-2.82721
-2.72161
-2.61841
-2.51761
-2.41921
-2.32321
-2.22961
-2.13841
-2.04961
-1.96321
-1.87921
-1.79761
-1.71841
-1.64161
-1.56721
-1.49521
-1.42561
-1.35841
-1.29361
-1.23121
-1.17121
-1.11361
-1.05841
-1.00561
-0.95521
-0.90721
-0.86161
-0.81841
-0.77761
-0.73921
-0.703211
-0.669611
-0.638411
-0.609611
-0.583211
-0.559211
-0.537611
-0.518411
-0.501611
-0.487211
-0.475211
-0.465611
-0.458411
-0.453611
-0.451211
-0.451211
-0.453611
-0.458411
-0.465611
-0.475211
-0.487211
-0.501611
-0.518411
-0.537611
-0.559211
-0.583211
-0.609611
-0.638411
-0.669611
-0.703211
-0.73921
-0.77761
-0.81841
-0.86161
-0.90721
-0.95521
-1.00561
-1.05841
-1.11361
-1.17121
-1.23121
-1.29361
-1.35841
-1.42561
-1.49521
-1.56721
-1.64161
-1.71841
-1.79761
-1.87921
-1.96321
-2.04961
-2.13841
-2.22961
-2.32321
-2.41921
-2.51761
-2.61841
-2.72161
-2.82721
-2.93521
-3.04561
-3.15841
-3.27361
-3.39121
-3.33121
-3.21361
-3.09841
-2.98561
-2.87521
-2.76721
-2.66161
-2.55841
-2.45761
-2.35921
-2.26321
-2.16961
-2.07841
-1.98961
-1.90321
-1.81921
-1.73761
-1.65841
-1.58161
-1.50721
-1.43521
-1.36561
-1.29841
-1.23361
-1.17121
-1.11121
-1.05361
-0.99841
-0.94561
-0.89521
-0.84721
-0.80161
-0.75841
-0.71761
-0.679211
-0.643211
-0.609611
-0.578411
-0.549611
-0.523211
-0.499211
-0.477611
-0.458411
-0.441611
-0.427211
-0.415211
-0.405611
-0.398411
-0.393611
-0.391211
-0.391211
-0.393611
-0.398411
-0.405611
-0.415211
-0.427211
-0.441611
-0.458411
-0.477611
-0.499211
-0.523211
-0.549611
-0.578411
-0.609611
-0.643211
-0.679211
-0.71761
-0.75841
-0.80161
-0.84721
-0.89521
-0.94561
-0.99841
-1.05361
-1.11121
-1.17121
-1.23361
-1.29841
-1.36561
-1.43521
-1.50721
-1.58161
-1.65841
-1.73761
-1.81921
-1.90321
-1.98961
-2.07841
-2.16961
-2.26321
-2.35921
-2.45761
-2.55841
-2.66161
-2.76721
-2.87521
-2.98561
-3.09841
-3.21361
-3.33121
-3.27361
-3.15601
-3.04081
-2.92801
-2.81761
-2.70961
-2.60401
-2.50081
-2.40001
-2.30161
-2.20561
-2.11201
-2.02081
-1.93201
-1.84561
-1.76161
-1.68001
-1.60081
-1.52401
-1.44961
-1.37761
-1.30801
-1.24081
-1.17601
-1.11361
-1.05361
-0.99601
-0.94081
-0.88801
-0.83761
-0.78961
-0.74401
-0.70081
-0.660011
-0.621611
-0.585611
-0.552011
-0.520811
-0.492011
-0.465611
-0.441611
-0.420011
-0.400811
-0.384011
-0.369611
-0.357611
-0.348011
-0.340812
-0.336012
-0.333612
-0.333612
-0.336012
-0.340812
-0.348011
-0.357611
-0.369611
-0.384011
-0.400811
-0.420011
-0.441611
-0.465611
-0.492011
-0.520811
-0.552011
-0.585611
-0.621611
-0.660011
-0.70081
-0.74401
-0.78961
-0.83761
-0.88801
-0.94081
-0.99601
-1.05361
-1.11361
-1.17601
-1.24081
-1.30801
-1.37761
-1.44961
-1.52401
-1.60081
-1.68001
-1.76161
-1.84561
-1.93201
-2.02081
-2.11201
-2.20561
-2.30161
-2.40001
-2.50081
-2.60401
-2.70961
-2.81761
-2.92801
-3.04081
-3.15601
-3.27361
-3.21841
-3.10081
-2.98561
-2.87281
-2.76241
-2.65441
-2.54881
-2.44561
-2.34481
-2.24641
-2.15041
-2.05681
-1.96561
-1.87681
-1.79041
-1.70641
-1.62481
-1.54561
-1.46881
-1.39441
-1.32241
-1.25281
-1.18561
-1.12081
-1.05841
-0.99841
-0.94081
-0.88561
-0.83281
-0.78241
-0.73441
-0.68881
-0.645611
-0.604811
-0.566411
-0.530411
-0.496811
-0.465611
-0.436811
-0.410411
-0.386411
-0.364811
-0.345611
-0.328812
-0.314412
-0.302412
-0.292812
-0.285612
-0.280812
-0.278412
-0.278412
-0.280812
-0.285612
-0.292812
-0.302412
-0.314412
-0.328812
-0.345611
-0.364811
-0.386411
-0.410411
-0.436811
-0.465611
-0.496811
-0.530411
-0.566411
-0.604811
-0.645611
-0.68881
-0.73441
-0.78241
-0.83281
-0.88561
-0.94081
-0.99841
-1.05841
-1.12081
-1.18561
-1.25281
-1.32241
-1.39441
-1.46881
-1.54561
-1.62481
-1.70641
-1.79041
-1.87681
-1.96561
-2.05681
-2.15041
-2.24641
-2.34481
-2.44561
-2.54881
-2.65441
-2.76241
-2.87281
-2.98561
-3.10081
-3.21841
-3.16561
-3.04801
-2.93281
-2.82001
-2.70961
-2.60161
-2.49601
-2.39281
-2.29201
-2.19361
-2.09761
-2.00401
-1.91281
-1.82401
-1.73761
-1.65361
-1.57201
-1.49281
-1.41601
-1.34161
-1.26961
-1.20001
-1.13281
-1.06801
-1.00561
-0.94561
-0.88801
-0.83281
-0.78001
-0.72961
-0.68161
-0.636011
-0.592811
-0.552011
-0.513611
-0.477611
-0.444011
-0.412811
-0.384011
-0.357611
-0.333611
-0.312012
-0.292812
-0.276012
-0.261612
-0.249612
-0.240012
-0.232812
-0.228012
-0.225612
-0.225612
-0.228012
-0.232812
-0.240012
-0.249612
-0.261612
-0.276012
-0.292812
-0.312012
-0.333611
-0.357611
-0.384011
-0.412811
-0.444011
-0.477611
-0.513611
-0.552011
-0.592811
-0.636011
-0.68161
-0.72961
-0.78001
-0.83281
-0.88801
-0.94561
-1.00561
-1.06801
-1.13281
-1.20001
-1.26961
-1.34161
-1.41601
-1.49281
-1.57201
-1.65361
-1.73761
-1.82401
-1.91281
-2.00401
-2.09761
-2.19361
-2.29201
-2.39281
-2.49601
-2.60161
-2.70961
-2.82001
-2.93281
-3.04801
-3.16561
-3.11521
-2.99761
-2.88241
-2.76961
-2.65921
-2.55121
-2.44561
-2.34241
-2.24161
-2.14321
-2.04721
-1.95361
-1.86241
-1.77361
-1.68721
-1.60321
-1.52161
-1.44241
-1.36561
-1.29121
-1.21921
-1.14961
-1.08241
-1.01761
-0.95521
-0.89521
-0.83761
-0.78241
-0.72961
-0.67921
-0.631211
-0.585611
-0.542411
-0.501611
-0.463211
-0.427211
-0.393611
-0.362411
-0.333611
-0.307212
-0.283212
-0.261612
-0.242412
-0.225612
-0.211212
-0.199212
-0.189612
-0.182412
-0.177612
-0.175212
-0.175212
-0.177612
-0.182412
-0.189612
-0.199212
-0.211212
-0.225612
-0.242412
-0.261612
-0.283212
-0.307212
-0.333611
-0.362411
-0.393611
-0.427211
-0.463211
-0.501611
-0.542411
-0.585611
-0.631211
-0.679211
-0.72961
-0.78241
-0.83761
-0.89521
-0.95521
-1.01761
-1.08241
-1.14961
-1.21921
-1.29121
-1.36561
-1.44241
-1.52161
-1.60321
-1.68721
-1.77361
-1.86241
-1.95361
-2.04721
-2.14321
-2.24161
-2.34241
-2.44561
-2.55121
-2.65921
-2.76961
-2.88241
-2.99761
-3.11521
-3.06721
-2.94961
-2.83441
-2.72161
-2.61121
-2.50321
-2.39761
-2.29441
-2.19361
-2.09521
-1.99921
-1.90561
-1.81441
-1.72561
-1.63921
-1.55521
-1.47361
-1.39441
-1.31761
-1.24321
-1.17121
-1.10161
-1.03441
-0.96961
-0.90721
-0.84721
-0.78961
-0.73441
-0.68161
-0.631211
-0.583211
-0.537611
-0.494411
-0.453611
-0.415211
-0.379211
-0.345611
-0.314411
-0.285612
-0.259212
-0.235212
-0.213612
-0.194412
-0.177612
-0.163212
-0.151212
-0.141612
-0.134412
-0.129612
-0.127212
-0.127212
-0.129612
-0.134412
-0.141612
-0.151212
-0.163212
-0.177612
-0.194412
-0.213612
-0.235212
-0.259212
-0.285612
-0.314411
-0.345611
-0.379211
-0.415211
-0.453611
-0.494411
-0.537611
-0.583211
-0.631211
-0.68161
-0.73441
-0.78961
-0.84721
-0.90721
-0.96961
-1.03441
-1.10161
-1.17121
-1.24321
-1.31761
-1.39441
-1.47361
-1.55521
-1.63921
-1.72561
-1.81441
-1.90561
-1.99921
-2.09521
-2.19361
-2.29441
-2.39761
-2.50321
-2.61121
-2.72161
-2.83441
-2.94961
-3.06721
-3.02161
-2.90401
-2.78881
-2.67601
-2.56561
-2.45761
-2.35201
-2.24881
-2.14801
-2.04961
-1.95361
-1.86001
-1.76881
-1.68001
-1.59361
-1.50961
-1.42801
-1.34881
-1.27201
-1.19761
-1.12561
-1.05601
-0.98881
-0.92401
-0.86161
-0.80161
-0.74401
-0.68881
-0.636011
-0.585611
-0.537611
-0.492011
-0.448811
-0.408011
-0.369611
-0.333611
-0.300012
-0.268812
-0.240012
-0.213612
-0.189612
-0.168012
-0.148812
-0.132012
-0.117612
-0.105612
-0.0960121
-0.0888121
-0.0840121
-0.0816121
-0.0816121
-0.0840121
-0.0888121
-0.0960121
-0.105612
-0.117612
-0.132012
-0.148812
-0.168012
-0.189612
-0.213612
-0.240012
-0.268812
-0.300012
-0.333611
-0.369611
-0.408011
-0.448811
-0.492011
-0.537611
-0.585611
-0.636011
-0.68881
-0.74401
-0.80161
-0.86161
-0.92401
-0.98881
-1.05601
-1.12561
-1.19761
-1.27201
-1.34881
-1.42801
-1.50961
-1.59361
-1.68001
-1.76881
-1.86001
-1.95361
-2.04961
-2.14801
-2.24881
-2.35201