/*--------------------------------*- C++ -*----------------------------------*\
| =========                 |                                                 |
| \\      /  F ield         | OpenFOAM: The Open Source CFD Toolbox           |
|  \\    /   O peration     | Version:  v1806                                 |
|   \\  /    A nd           | Web:      www.OpenFOAM.com                      |
|    \\/     M anipulation  |                                                 |
\*---------------------------------------------------------------------------*/
FoamFile
{
    version     2.0;
    format      ascii;
    class       volScalarField;
    location    "3";
    object      p;
}
// * * * * * * * * * * * * * * * * * * * * * * * * * * * * * * * * * * * * * //

dimensions      [0 0 0 0 0 0 0];


internalField   nonuniform List<scalar> 
10000
(
-5.53232
-5.41472
-5.29952
-5.18672
-5.07632
-4.96832
-4.86272
-4.75952
-4.65872
-4.56032
-4.46432
-4.37072
-4.27952
-4.19072
-4.10432
-4.02032
-3.93872
-3.85952
-3.78272
-3.70832
-3.63632
-3.56672
-3.49952
-3.43472
-3.37232
-3.31232
-3.25471
-3.19951
-3.14671
-3.09631
-3.04831
-3.00271
-2.95951
-2.91871
-2.88031
-2.84431
-2.81071
-2.77951
-2.75071
-2.72431
-2.70031
-2.67871
-2.65951
-2.64271
-2.62831
-2.61631
-2.60671
-2.59951
-2.59471
-2.59231
-2.59231
-2.59471
-2.59951
-2.60671
-2.61631
-2.62831
-2.64271
-2.65951
-2.67871
-2.70031
-2.72431
-2.75071
-2.77951
-2.81071
-2.84431
-2.88031
-2.91871
-2.95951
-3.00271
-3.04831
-3.09631
-3.14671
-3.19951
-3.25471
-3.31232
-3.37232
-3.43472
-3.49952
-3.56672
-3.63632
-3.70832
-3.78272
-3.85952
-3.93872
-4.02032
-4.10432
-4.19072
-4.27952
-4.37072
-4.46432
-4.56032
-4.65872
-4.75952
-4.86272
-4.96832
-5.07632
-5.18672
-5.29952
-5.41472
-5.53232
-5.41472
-5.29712
-5.18192
-5.06912
-4.95872
-4.85072
-4.74512
-4.64192
-4.54112
-4.44272
-4.34672
-4.25312
-4.16192
-4.07312
-3.98672
-3.90272
-3.82112
-3.74192
-3.66512
-3.59072
-3.51872
-3.44912
-3.38192
-3.31712
-3.25472
-3.19471
-3.13711
-3.08191
-3.02911
-2.97871
-2.93071
-2.88511
-2.84191
-2.80111
-2.76271
-2.72671
-2.69311
-2.66191
-2.63311
-2.60671
-2.58271
-2.56111
-2.54191
-2.52511
-2.51071
-2.49871
-2.48911
-2.48191
-2.47711
-2.47471
-2.47471
-2.47711
-2.48191
-2.48911
-2.49871
-2.51071
-2.52511
-2.54191
-2.56111
-2.58271
-2.60671
-2.63311
-2.66191
-2.69311
-2.72671
-2.76271
-2.80111
-2.84191
-2.88511
-2.93071
-2.97871
-3.02911
-3.08191
-3.13711
-3.19472
-3.25472
-3.31712
-3.38192
-3.44912
-3.51872
-3.59072
-3.66512
-3.74192
-3.82112
-3.90272
-3.98672
-4.07312
-4.16192
-4.25312
-4.34672
-4.44272
-4.54112
-4.64192
-4.74512
-4.85072
-4.95872
-5.06912
-5.18192
-5.29712
-5.41472
-5.29952
-5.18192
-5.06672
-4.95392
-4.84352
-4.73552
-4.62992
-4.52672
-4.42592
-4.32752
-4.23152
-4.13792
-4.04672
-3.95792
-3.87152
-3.78752
-3.70592
-3.62672
-3.54992
-3.47552
-3.40352
-3.33392
-3.26672
-3.20192
-3.13952
-3.07951
-3.02191
-2.96671
-2.91391
-2.86351
-2.81551
-2.76991
-2.72671
-2.68591
-2.64751
-2.61151
-2.57791
-2.54671
-2.51791
-2.49151
-2.46751
-2.44591
-2.42671
-2.40991
-2.39551
-2.38351
-2.37391
-2.36671
-2.36191
-2.35951
-2.35951
-2.36191
-2.36671
-2.37391
-2.38351
-2.39551
-2.40991
-2.42671
-2.44591
-2.46751
-2.49151
-2.51791
-2.54671
-2.57791
-2.61151
-2.64751
-2.68591
-2.72671
-2.76991
-2.81551
-2.86351
-2.91391
-2.96671
-3.02191
-3.07951
-3.13952
-3.20192
-3.26672
-3.33392
-3.40352
-3.47552
-3.54992
-3.62672
-3.70592
-3.78752
-3.87152
-3.95792
-4.04672
-4.13792
-4.23152
-4.32752
-4.42592
-4.52672
-4.62992
-4.73552
-4.84352
-4.95392
-5.06672
-5.18192
-5.29952
-5.18672
-5.06912
-4.95392
-4.84112
-4.73072
-4.62272
-4.51712
-4.41392
-4.31312
-4.21472
-4.11872
-4.02512
-3.93392
-3.84512
-3.75872
-3.67472
-3.59312
-3.51392
-3.43712
-3.36272
-3.29072
-3.22112
-3.15392
-3.08912
-3.02672
-2.96671
-2.90911
-2.85391
-2.80111
-2.75071
-2.70271
-2.65711
-2.61391
-2.57311
-2.53471
-2.49871
-2.46511
-2.43391
-2.40511
-2.37871
-2.35471
-2.33311
-2.31391
-2.29711
-2.28271
-2.27071
-2.26111
-2.25391
-2.24911
-2.24671
-2.24671
-2.24911
-2.25391
-2.26111
-2.27071
-2.28271
-2.29711
-2.31391
-2.33311
-2.35471
-2.37871
-2.40511
-2.43391
-2.46511
-2.49871
-2.53471
-2.57311
-2.61391
-2.65711
-2.70271
-2.75071
-2.80111
-2.85391
-2.90911
-2.96671
-3.02672
-3.08912
-3.15392
-3.22112
-3.29072
-3.36272
-3.43712
-3.51392
-3.59312
-3.67472
-3.75872
-3.84512
-3.93392
-4.02512
-4.11872
-4.21472
-4.31312
-4.41392
-4.51712
-4.62272
-4.73072
-4.84112
-4.95392
-5.06912
-5.18672
-5.07632
-4.95872
-4.84352
-4.73072
-4.62032
-4.51232
-4.40672
-4.30352
-4.20272
-4.10432
-4.00832
-3.91472
-3.82352
-3.73472
-3.64832
-3.56432
-3.48272
-3.40352
-3.32672
-3.25232
-3.18032
-3.11072
-3.04352
-2.97872
-2.91632
-2.85631
-2.79871
-2.74351
-2.69071
-2.64031
-2.59231
-2.54671
-2.50351
-2.46271
-2.42431
-2.38831
-2.35471
-2.32351
-2.29471
-2.26831
-2.24431
-2.22271
-2.20351
-2.18671
-2.17231
-2.16031
-2.15071
-2.14351
-2.13871
-2.13631
-2.13631
-2.13871
-2.14351
-2.15071
-2.16031
-2.17231
-2.18671
-2.20351
-2.22271
-2.24431
-2.26831
-2.29471
-2.32351
-2.35471
-2.38831
-2.42431
-2.46271
-2.50351
-2.54671
-2.59231
-2.64031
-2.69071
-2.74351
-2.79871
-2.85631
-2.91632
-2.97872
-3.04352
-3.11072
-3.18032
-3.25232
-3.32672
-3.40352
-3.48272
-3.56432
-3.64832
-3.73472
-3.82352
-3.91472
-4.00832
-4.10432
-4.20272
-4.30352
-4.40672
-4.51232
-4.62032
-4.73072
-4.84352
-4.95872
-5.07632
-4.96832
-4.85072
-4.73552
-4.62272
-4.51232
-4.40432
-4.29872
-4.19552
-4.09472
-3.99632
-3.90032
-3.80672
-3.71552
-3.62672
-3.54032
-3.45632
-3.37472
-3.29552
-3.21872
-3.14432
-3.07232
-3.00272
-2.93552
-2.87072
-2.80831
-2.74831
-2.69071
-2.63551
-2.58271
-2.53231
-2.48431
-2.43871
-2.39551
-2.35471
-2.31631
-2.28031
-2.24671
-2.21551
-2.18671
-2.16031
-2.13631
-2.11471
-2.09551
-2.07871
-2.06431
-2.05231
-2.04271
-2.03551
-2.03071
-2.02831
-2.02831
-2.03071
-2.03551
-2.04271
-2.05231
-2.06431
-2.07871
-2.09551
-2.11471
-2.13631
-2.16031
-2.18671
-2.21551
-2.24671
-2.28031
-2.31631
-2.35471
-2.39551
-2.43871
-2.48431
-2.53231
-2.58271
-2.63551
-2.69071
-2.74831
-2.80831
-2.87072
-2.93552
-3.00272
-3.07232
-3.14432
-3.21872
-3.29552
-3.37472
-3.45632
-3.54032
-3.62672
-3.71552
-3.80672
-3.90032
-3.99632
-4.09472
-4.19552
-4.29872
-4.40432
-4.51232
-4.62272
-4.73552
-4.85072
-4.96832
-4.86272
-4.74512
-4.62992
-4.51712
-4.40672
-4.29872
-4.19312
-4.08992
-3.98912
-3.89072
-3.79472
-3.70112
-3.60992
-3.52112
-3.43472
-3.35072
-3.26912
-3.18992
-3.11312
-3.03872
-2.96672
-2.89712
-2.82992
-2.76512
-2.70271
-2.64271
-2.58511
-2.52991
-2.47711
-2.42671
-2.37871
-2.33311
-2.28991
-2.24911
-2.21071
-2.17471
-2.14111
-2.10991
-2.08111
-2.05471
-2.03071
-2.00911
-1.98991
-1.97311
-1.95871
-1.94671
-1.93711
-1.92991
-1.92511
-1.92271
-1.92271
-1.92511
-1.92991
-1.93711
-1.94671
-1.95871
-1.97311
-1.98991
-2.00911
-2.03071
-2.05471
-2.08111
-2.10991
-2.14111
-2.17471
-2.21071
-2.24911
-2.28991
-2.33311
-2.37871
-2.42671
-2.47711
-2.52991
-2.58511
-2.64271
-2.70271
-2.76512
-2.82992
-2.89712
-2.96672
-3.03872
-3.11312
-3.18992
-3.26912
-3.35072
-3.43472
-3.52112
-3.60992
-3.70112
-3.79472
-3.89072
-3.98912
-4.08992
-4.19312
-4.29872
-4.40672
-4.51712
-4.62992
-4.74512
-4.86272
-4.75952
-4.64192
-4.52672
-4.41392
-4.30352
-4.19552
-4.08992
-3.98672
-3.88592
-3.78752
-3.69152
-3.59792
-3.50672
-3.41792
-3.33152
-3.24752
-3.16592
-3.08672
-3.00992
-2.93552
-2.86352
-2.79392
-2.72672
-2.66191
-2.59951
-2.53951
-2.48191
-2.42671
-2.37391
-2.32351
-2.27551
-2.22991
-2.18671
-2.14591
-2.10751
-2.07151
-2.03791
-2.00671
-1.97791
-1.95151
-1.92751
-1.90591
-1.88671
-1.86991
-1.85551
-1.84351
-1.83391
-1.82671
-1.82191
-1.81951
-1.81951
-1.82191
-1.82671
-1.83391
-1.84351
-1.85551
-1.86991
-1.88671
-1.90591
-1.92751
-1.95151
-1.97791
-2.00671
-2.03791
-2.07151
-2.10751
-2.14591
-2.18671
-2.22991
-2.27551
-2.32351
-2.37391
-2.42671
-2.48191
-2.53951
-2.59951
-2.66191
-2.72672
-2.79392
-2.86352
-2.93552
-3.00992
-3.08672
-3.16592
-3.24752
-3.33152
-3.41792
-3.50672
-3.59792
-3.69152
-3.78752
-3.88592
-3.98672
-4.08992
-4.19552
-4.30352
-4.41392
-4.52672
-4.64192
-4.75952
-4.65872
-4.54112
-4.42592
-4.31312
-4.20272
-4.09472
-3.98912
-3.88592
-3.78512
-3.68672
-3.59072
-3.49712
-3.40592
-3.31712
-3.23072
-3.14672
-3.06512
-2.98592
-2.90912
-2.83472
-2.76272
-2.69312
-2.62592
-2.56111
-2.49871
-2.43871
-2.38111
-2.32591
-2.27311
-2.22271
-2.17471
-2.12911
-2.08591
-2.04511
-2.00671
-1.97071
-1.93711
-1.90591
-1.87711
-1.85071
-1.82671
-1.80511
-1.78591
-1.76911
-1.75471
-1.74271
-1.73311
-1.72591
-1.72111
-1.71871
-1.71871
-1.72111
-1.72591
-1.73311
-1.74271
-1.75471
-1.76911
-1.78591
-1.80511
-1.82671
-1.85071
-1.87711
-1.90591
-1.93711
-1.97071
-2.00671
-2.04511
-2.08591
-2.12911
-2.17471
-2.22271
-2.27311
-2.32591
-2.38111
-2.43871
-2.49871
-2.56111
-2.62592
-2.69312
-2.76272
-2.83472
-2.90912
-2.98592
-3.06512
-3.14672
-3.23072
-3.31712
-3.40592
-3.49712
-3.59072
-3.68672
-3.78512
-3.88592
-3.98912
-4.09472
-4.20272
-4.31312
-4.42592
-4.54112
-4.65872
-4.56032
-4.44272
-4.32752
-4.21472
-4.10432
-3.99632
-3.89072
-3.78752
-3.68672
-3.58832
-3.49232
-3.39872
-3.30752
-3.21872
-3.13232
-3.04832
-2.96672
-2.88752
-2.81072
-2.73632
-2.66432
-2.59472
-2.52751
-2.46271
-2.40031
-2.34031
-2.28271
-2.22751
-2.17471
-2.12431
-2.07631
-2.03071
-1.98751
-1.94671
-1.90831
-1.87231
-1.83871
-1.80751
-1.77871
-1.75231
-1.72831
-1.70671
-1.68751
-1.67071
-1.65631
-1.64431
-1.63471
-1.62751
-1.62271
-1.62031
-1.62031
-1.62271
-1.62751
-1.63471
-1.64431
-1.65631
-1.67071
-1.68751
-1.70671
-1.72831
-1.75231
-1.77871
-1.80751
-1.83871
-1.87231
-1.90831
-1.94671
-1.98751
-2.03071
-2.07631
-2.12431
-2.17471
-2.22751
-2.28271
-2.34031
-2.40031
-2.46271
-2.52751
-2.59472
-2.66432
-2.73632
-2.81072
-2.88752
-2.96672
-3.04832
-3.13232
-3.21872
-3.30752
-3.39872
-3.49232
-3.58832
-3.68672
-3.78752
-3.89072
-3.99632
-4.10432
-4.21472
-4.32752
-4.44272
-4.56032
-4.46432
-4.34672
-4.23152
-4.11872
-4.00832
-3.90032
-3.79472
-3.69152
-3.59072
-3.49232
-3.39632
-3.30272
-3.21152
-3.12272
-3.03632
-2.95232
-2.87072
-2.79152
-2.71472
-2.64032
-2.56832
-2.49871
-2.43151
-2.36671
-2.30431
-2.24431
-2.18671
-2.13151
-2.07871
-2.02831
-1.98031
-1.93471
-1.89151
-1.85071
-1.81231
-1.77631
-1.74271
-1.71151
-1.68271
-1.65631
-1.63231
-1.61071
-1.59151
-1.57471
-1.56031
-1.54831
-1.53871
-1.53151
-1.52671
-1.52431
-1.52431
-1.52671
-1.53151
-1.53871
-1.54831
-1.56031
-1.57471
-1.59151
-1.61071
-1.63231
-1.65631
-1.68271
-1.71151
-1.74271
-1.77631
-1.81231
-1.85071
-1.89151
-1.93471
-1.98031
-2.02831
-2.07871
-2.13151
-2.18671
-2.24431
-2.30431
-2.36671
-2.43151
-2.49871
-2.56832
-2.64032
-2.71472
-2.79152
-2.87072
-2.95232
-3.03632
-3.12272
-3.21152
-3.30272
-3.39632
-3.49232
-3.59072
-3.69152
-3.79472
-3.90032
-4.00832
-4.11872
-4.23152
-4.34672
-4.46432
-4.37072
-4.25312
-4.13792
-4.02512
-3.91472
-3.80672
-3.70112
-3.59792
-3.49712
-3.39872
-3.30272
-3.20912
-3.11792
-3.02912
-2.94272
-2.85872
-2.77712
-2.69792
-2.62112
-2.54672
-2.47472
-2.40511
-2.33791
-2.27311
-2.21071
-2.15071
-2.09311
-2.03791
-1.98511
-1.93471
-1.88671
-1.84111
-1.79791
-1.75711
-1.71871
-1.68271
-1.64911
-1.61791
-1.58911
-1.56271
-1.53871
-1.51711
-1.49791
-1.48111
-1.46671
-1.45471
-1.44511
-1.43791
-1.43311
-1.43071
-1.43071
-1.43311
-1.43791
-1.44511
-1.45471
-1.46671
-1.48111
-1.49791
-1.51711
-1.53871
-1.56271
-1.58911
-1.61791
-1.64911
-1.68271
-1.71871
-1.75711
-1.79791
-1.84111
-1.88671
-1.93471
-1.98511
-2.03791
-2.09311
-2.15071
-2.21071
-2.27311
-2.33791
-2.40511
-2.47472
-2.54672
-2.62112
-2.69792
-2.77712
-2.85872
-2.94272
-3.02912
-3.11792
-3.20912
-3.30272
-3.39872
-3.49712
-3.59792
-3.70112
-3.80672
-3.91472
-4.02512
-4.13792
-4.25312
-4.37072
-4.27952
-4.16192
-4.04672
-3.93392
-3.82352
-3.71552
-3.60992
-3.50672
-3.40592
-3.30752
-3.21152
-3.11792
-3.02672
-2.93792
-2.85152
-2.76752
-2.68592
-2.60672
-2.52992
-2.45552
-2.38351
-2.31391
-2.24671
-2.18191
-2.11951
-2.05951
-2.00191
-1.94671
-1.89391
-1.84351
-1.79551
-1.74991
-1.70671
-1.66591
-1.62751
-1.59151
-1.55791
-1.52671
-1.49791
-1.47151
-1.44751
-1.42591
-1.40671
-1.38991
-1.37551
-1.36351
-1.35391
-1.34671
-1.3419
-1.3395
-1.3395
-1.3419
-1.34671
-1.35391
-1.36351
-1.37551
-1.38991
-1.40671
-1.42591
-1.44751
-1.47151
-1.49791
-1.52671
-1.55791
-1.59151
-1.62751
-1.66591
-1.70671
-1.74991
-1.79551
-1.84351
-1.89391
-1.94671
-2.00191
-2.05951
-2.11951
-2.18191
-2.24671
-2.31391
-2.38351
-2.45552
-2.52992
-2.60672
-2.68592
-2.76752
-2.85152
-2.93792
-3.02672
-3.11792
-3.21152
-3.30752
-3.40592
-3.50672
-3.60992
-3.71552
-3.82352
-3.93392
-4.04672
-4.16192
-4.27952
-4.19072
-4.07312
-3.95792
-3.84512
-3.73472
-3.62672
-3.52112
-3.41792
-3.31712
-3.21872
-3.12272
-3.02912
-2.93792
-2.84912
-2.76272
-2.67872
-2.59712
-2.51792
-2.44112
-2.36671
-2.29471
-2.22511
-2.15791
-2.09311
-2.03071
-1.97071
-1.91311
-1.85791
-1.80511
-1.75471
-1.70671
-1.66111
-1.61791
-1.57711
-1.53871
-1.50271
-1.46911
-1.43791
-1.40911
-1.38271
-1.35871
-1.33711
-1.31791
-1.30111
-1.2867
-1.2747
-1.2651
-1.2579
-1.2531
-1.2507
-1.2507
-1.2531
-1.2579
-1.2651
-1.2747
-1.2867
-1.30111
-1.31791
-1.33711
-1.35871
-1.38271
-1.40911
-1.43791
-1.46911
-1.50271
-1.53871
-1.57711
-1.61791
-1.66111
-1.70671
-1.75471
-1.80511
-1.85791
-1.91311
-1.97071
-2.03071
-2.09311
-2.15791
-2.22511
-2.29471
-2.36671
-2.44112
-2.51792
-2.59712
-2.67872
-2.76272
-2.84912
-2.93792
-3.02912
-3.12272
-3.21872
-3.31712
-3.41792
-3.52112
-3.62672
-3.73472
-3.84512
-3.95792
-4.07312
-4.19072
-4.10432
-3.98672
-3.87152
-3.75872
-3.64832
-3.54032
-3.43472
-3.33152
-3.23072
-3.13232
-3.03632
-2.94272
-2.85152
-2.76272
-2.67632
-2.59232
-2.51072
-2.43152
-2.35471
-2.28031
-2.20831
-2.13871
-2.07151
-2.00671
-1.94431
-1.88431
-1.82671
-1.77151
-1.71871
-1.66831
-1.62031
-1.57471
-1.53151
-1.49071
-1.45231
-1.41631
-1.38271
-1.35151
-1.32271
-1.29631
-1.27231
-1.25071
-1.2315
-1.2147
-1.2003
-1.1883
-1.1787
-1.1715
-1.1667
-1.1643
-1.1643
-1.1667
-1.1715
-1.1787
-1.1883
-1.2003
-1.2147
-1.2315
-1.25071
-1.27231
-1.29631
-1.32271
-1.35151
-1.38271
-1.41631
-1.45231
-1.49071
-1.53151
-1.57471
-1.62031
-1.66831
-1.71871
-1.77151
-1.82671
-1.88431
-1.94431
-2.00671
-2.07151
-2.13871
-2.20831
-2.28031
-2.35471
-2.43152
-2.51072
-2.59232
-2.67632
-2.76272
-2.85152
-2.94272
-3.03632
-3.13232
-3.23072
-3.33152
-3.43472
-3.54032
-3.64832
-3.75872
-3.87152
-3.98672
-4.10432
-4.02032
-3.90272
-3.78752
-3.67472
-3.56432
-3.45632
-3.35072
-3.24752
-3.14672
-3.04832
-2.95232
-2.85872
-2.76752
-2.67872
-2.59232
-2.50832
-2.42672
-2.34751
-2.27071
-2.19631
-2.12431
-2.05471
-1.98751
-1.92271
-1.86031
-1.80031
-1.74271
-1.68751
-1.63471
-1.58431
-1.53631
-1.49071
-1.44751
-1.40671
-1.36831
-1.33231
-1.29871
-1.26751
-1.23871
-1.21231
-1.1883
-1.1667
-1.1475
-1.1307
-1.1163
-1.1043
-1.0947
-1.0875
-1.0827
-1.0803
-1.0803
-1.0827
-1.0875
-1.0947
-1.1043
-1.1163
-1.1307
-1.1475
-1.1667
-1.1883
-1.21231
-1.23871
-1.26751
-1.29871
-1.33231
-1.36831
-1.40671
-1.44751
-1.49071
-1.53631
-1.58431
-1.63471
-1.68751
-1.74271
-1.80031
-1.86031
-1.92271
-1.98751
-2.05471
-2.12431
-2.19631
-2.27071
-2.34751
-2.42672
-2.50832
-2.59232
-2.67872
-2.76752
-2.85872
-2.95232
-3.04832
-3.14672
-3.24752
-3.35072
-3.45632
-3.56432
-3.67472
-3.78752
-3.90272
-4.02032
-3.93872
-3.82112
-3.70592
-3.59312
-3.48272
-3.37472
-3.26912
-3.16592
-3.06512
-2.96672
-2.87072
-2.77712
-2.68592
-2.59712
-2.51072
-2.42672
-2.34511
-2.26591
-2.18911
-2.11471
-2.04271
-1.97311
-1.90591
-1.84111
-1.77871
-1.71871
-1.66111
-1.60591
-1.55311
-1.50271
-1.45471
-1.40911
-1.36591
-1.32511
-1.28671
-1.25071
-1.21711
-1.18591
-1.1571
-1.1307
-1.1067
-1.0851
-1.0659
-1.0491
-1.0347
-1.0227
-1.0131
-1.0059
-1.0011
-0.998703
-0.998703
-1.0011
-1.0059
-1.0131
-1.0227
-1.0347
-1.0491
-1.0659
-1.0851
-1.1067
-1.1307
-1.1571
-1.18591
-1.21711
-1.25071
-1.28671
-1.32511
-1.36591
-1.40911
-1.45471
-1.50271
-1.55311
-1.60591
-1.66111
-1.71871
-1.77871
-1.84111
-1.90591
-1.97311
-2.04271
-2.11471
-2.18911
-2.26591
-2.34511
-2.42672
-2.51072
-2.59712
-2.68592
-2.77712
-2.87072
-2.96672
-3.06512
-3.16592
-3.26912
-3.37472
-3.48272
-3.59312
-3.70592
-3.82112
-3.93872
-3.85952
-3.74192
-3.62672
-3.51392
-3.40352
-3.29552
-3.18992
-3.08672
-2.98592
-2.88752
-2.79152
-2.69792
-2.60672
-2.51792
-2.43152
-2.34751
-2.26591
-2.18671
-2.10991
-2.03551
-1.96351
-1.89391
-1.82671
-1.76191
-1.69951
-1.63951
-1.58191
-1.52671
-1.47391
-1.42351
-1.37551
-1.32991
-1.28671
-1.24591
-1.20751
-1.17151
-1.1379
-1.1067
-1.0779
-1.0515
-1.0275
-1.0059
-0.986703
-0.969903
-0.955503
-0.943503
-0.933902
-0.926702
-0.921902
-0.919502
-0.919502
-0.921902
-0.926702
-0.933902
-0.943503
-0.955503
-0.969903
-0.986703
-1.0059
-1.0275
-1.0515
-1.0779
-1.1067
-1.1379
-1.17151
-1.20751
-1.24591
-1.28671
-1.32991
-1.37551
-1.42351
-1.47391
-1.52671
-1.58191
-1.63951
-1.69951
-1.76191
-1.82671
-1.89391
-1.96351
-2.03551
-2.10991
-2.18671
-2.26591
-2.34751
-2.43152
-2.51792
-2.60672
-2.69792
-2.79152
-2.88752
-2.98592
-3.08672
-3.18992
-3.29552
-3.40352
-3.51392
-3.62672
-3.74192
-3.85952
-3.78272
-3.66512
-3.54992
-3.43712
-3.32672
-3.21872
-3.11312
-3.00992
-2.90912
-2.81072
-2.71472
-2.62112
-2.52992
-2.44112
-2.35471
-2.27071
-2.18911
-2.10991
-2.03311
-1.95871
-1.88671
-1.81711
-1.74991
-1.68511
-1.62271
-1.56271
-1.50511
-1.44991
-1.39711
-1.34671
-1.29871
-1.25311
-1.20991
-1.16911
-1.13071
-1.0947
-1.0611
-1.0299
-1.0011
-0.974703
-0.950703
-0.929103
-0.909903
-0.893102
-0.878702
-0.866702
-0.857102
-0.849902
-0.845102
-0.842702
-0.842702
-0.845102
-0.849902
-0.857102
-0.866702
-0.878702
-0.893102
-0.909903
-0.929103
-0.950703
-0.974703
-1.0011
-1.0299
-1.0611
-1.0947
-1.13071
-1.16911
-1.20991
-1.25311
-1.29871
-1.34671
-1.39711
-1.44991
-1.50511
-1.56271
-1.62271
-1.68511
-1.74991
-1.81711
-1.88671
-1.95871
-2.03311
-2.10991
-2.18911
-2.27071
-2.35471
-2.44112
-2.52992
-2.62112
-2.71472
-2.81072
-2.90912
-3.00992
-3.11312
-3.21872
-3.32672
-3.43712
-3.54992
-3.66512
-3.78272
-3.70832
-3.59072
-3.47552
-3.36272
-3.25232
-3.14432
-3.03872
-2.93552
-2.83472
-2.73632
-2.64032
-2.54672
-2.45552
-2.36671
-2.28031
-2.19631
-2.11471
-2.03551
-1.95871
-1.88431
-1.81231
-1.74271
-1.67551
-1.61071
-1.54831
-1.48831
-1.43071
-1.37551
-1.32271
-1.27231
-1.22431
-1.17871
-1.13551
-1.09471
-1.0563
-1.0203
-0.986704
-0.955503
-0.926703
-0.900303
-0.876302
-0.854702
-0.835502
-0.818702
-0.804302
-0.792301
-0.782701
-0.775501
-0.770701
-0.768301
-0.768301
-0.770701
-0.775501
-0.782701
-0.792301
-0.804302
-0.818702
-0.835502
-0.854702
-0.876302
-0.900303
-0.926703
-0.955503
-0.986704
-1.0203
-1.0563
-1.09471
-1.13551
-1.17871
-1.22431
-1.27231
-1.32271
-1.37551
-1.43071
-1.48831
-1.54831
-1.61071
-1.67551
-1.74271
-1.81231
-1.88431
-1.95871
-2.03551
-2.11471
-2.19631
-2.28031
-2.36671
-2.45552
-2.54672
-2.64032
-2.73632
-2.83472
-2.93552
-3.03872
-3.14432
-3.25232
-3.36272
-3.47552
-3.59072
-3.70832
-3.63632
-3.51872
-3.40352
-3.29072
-3.18032
-3.07232
-2.96672
-2.86352
-2.76272
-2.66432
-2.56832
-2.47472
-2.38351
-2.29471
-2.20831
-2.12431
-2.04271
-1.96351
-1.88671
-1.81231
-1.74031
-1.67071
-1.60351
-1.53871
-1.47631
-1.41631
-1.35871
-1.30351
-1.25071
-1.20031
-1.15231
-1.10671
-1.0635
-1.0227
-0.984304
-0.948304
-0.914703
-0.883503
-0.854702
-0.828302
-0.804302
-0.782702
-0.763501
-0.746701
-0.732301
-0.720301
-0.710701
-0.703501
-0.698701
-0.6963
-0.6963
-0.698701
-0.703501
-0.710701
-0.720301
-0.732301
-0.746701
-0.763501
-0.782702
-0.804302
-0.828302
-0.854702
-0.883503
-0.914703
-0.948304
-0.984304
-1.0227
-1.0635
-1.10671
-1.15231
-1.20031
-1.25071
-1.30351
-1.35871
-1.41631
-1.47631
-1.53871
-1.60351
-1.67071
-1.74031
-1.81231
-1.88671
-1.96351
-2.04271
-2.12431
-2.20831
-2.29471
-2.38351
-2.47472
-2.56832
-2.66432
-2.76272
-2.86352
-2.96672
-3.07232
-3.18032
-3.29072
-3.40352
-3.51872
-3.63632
-3.56672
-3.44912
-3.33392
-3.22112
-3.11072
-3.00272
-2.89712
-2.79392
-2.69312
-2.59472
-2.49871
-2.40511
-2.31391
-2.22511
-2.13871
-2.05471
-1.97311
-1.89391
-1.81711
-1.74271
-1.67071
-1.60111
-1.53391
-1.46911
-1.40671
-1.34671
-1.28911
-1.23391
-1.18111
-1.13071
-1.08271
-1.0371
-0.993904
-0.953104
-0.914703
-0.878703
-0.845103
-0.813902
-0.785102
-0.758702
-0.734701
-0.713101
-0.693901
-0.677101
-0.6627
-0.6507
-0.6411
-0.6339
-0.6291
-0.6267
-0.6267
-0.6291
-0.6339
-0.6411
-0.6507
-0.6627
-0.677101
-0.693901
-0.713101
-0.734701
-0.758702
-0.785102
-0.813902
-0.845103
-0.878703
-0.914703
-0.953104
-0.993904
-1.0371
-1.08271
-1.13071
-1.18111
-1.23391
-1.28911
-1.34671
-1.40671
-1.46911
-1.53391
-1.60111
-1.67071
-1.74271
-1.81711
-1.89391
-1.97311
-2.05471
-2.13871
-2.22511
-2.31391
-2.40511
-2.49871
-2.59472
-2.69312
-2.79392
-2.89712
-3.00272
-3.11072
-3.22112
-3.33392
-3.44912
-3.56672
-3.49952
-3.38192
-3.26672
-3.15392
-3.04352
-2.93552
-2.82992
-2.72672
-2.62592
-2.52751
-2.43151
-2.33791
-2.24671
-2.15791
-2.07151
-1.98751
-1.90591
-1.82671
-1.74991
-1.67551
-1.60351
-1.53391
-1.46671
-1.40191
-1.33951
-1.27951
-1.22191
-1.16671
-1.11391
-1.06351
-1.0155
-0.969904
-0.926704
-0.885903
-0.847503
-0.811502
-0.777902
-0.746702
-0.717901
-0.691501
-0.667501
-0.6459
-0.6267
-0.6099
-0.5955
-0.5835
-0.573899
-0.566699
-0.561899
-0.559499
-0.559499
-0.561899
-0.566699
-0.573899
-0.5835
-0.5955
-0.6099
-0.6267
-0.6459
-0.667501
-0.691501
-0.717901
-0.746702
-0.777902
-0.811502
-0.847503
-0.885903
-0.926704
-0.969904
-1.0155
-1.06351
-1.11391
-1.16671
-1.22191
-1.27951
-1.33951
-1.40191
-1.46671
-1.53391
-1.60351
-1.67551
-1.74991
-1.82671
-1.90591
-1.98751
-2.07151
-2.15791
-2.24671
-2.33791
-2.43151
-2.52751
-2.62592
-2.72672
-2.82992
-2.93552
-3.04352
-3.15392
-3.26672
-3.38192
-3.49952
-3.43472
-3.31712
-3.20192
-3.08912
-2.97872
-2.87072
-2.76512
-2.66191
-2.56111
-2.46271
-2.36671
-2.27311
-2.18191
-2.09311
-2.00671
-1.92271
-1.84111
-1.76191
-1.68511
-1.61071
-1.53871
-1.46911
-1.40191
-1.33711
-1.27471
-1.21471
-1.15711
-1.10191
-1.04911
-0.998705
-0.950704
-0.905104
-0.861903
-0.821103
-0.782702
-0.746702
-0.713101
-0.681901
-0.653101
-0.6267
-0.6027
-0.5811
-0.5619
-0.545099
-0.530699
-0.518699
-0.509099
-0.501899
-0.497099
-0.494699
-0.494699
-0.497099
-0.501899
-0.509099
-0.518699
-0.530699
-0.545099
-0.5619
-0.5811
-0.6027
-0.6267
-0.653101
-0.681901
-0.713101
-0.746702
-0.782702
-0.821103
-0.861903
-0.905104
-0.950704
-0.998705
-1.04911
-1.10191
-1.15711
-1.21471
-1.27471
-1.33711
-1.40191
-1.46911
-1.53871
-1.61071
-1.68511
-1.76191
-1.84111
-1.92271
-2.00671
-2.09311
-2.18191
-2.27311
-2.36671
-2.46271
-2.56111
-2.66191
-2.76512
-2.87072
-2.97872
-3.08912
-3.20192
-3.31712
-3.43472
-3.37232
-3.25472
-3.13952
-3.02672
-2.91632
-2.80831
-2.70271
-2.59951
-2.49871
-2.40031
-2.30431
-2.21071
-2.11951
-2.03071
-1.94431
-1.86031
-1.77871
-1.69951
-1.62271
-1.54831
-1.47631
-1.40671
-1.33951
-1.27471
-1.21231
-1.15231
-1.09471
-1.03951
-0.986705
-0.936304
-0.888304
-0.842703
-0.799503
-0.758702
-0.720302
-0.684301
-0.650701
-0.6195
-0.5907
-0.5643
-0.5403
-0.518699
-0.499499
-0.482699
-0.468299
-0.456298
-0.446698
-0.439498
-0.434698
-0.432298
-0.432298
-0.434698
-0.439498
-0.446698
-0.456298
-0.468299
-0.482699
-0.499499
-0.518699
-0.5403
-0.5643
-0.5907
-0.6195
-0.650701
-0.684301
-0.720302
-0.758702
-0.799503
-0.842703
-0.888304
-0.936304
-0.986705
-1.03951
-1.09471
-1.15231
-1.21231
-1.27471
-1.33951
-1.40671
-1.47631
-1.54831
-1.62271
-1.69951
-1.77871
-1.86031
-1.94431
-2.03071
-2.11951
-2.21071
-2.30431
-2.40031
-2.49871
-2.59951
-2.70271
-2.80831
-2.91632
-3.02672
-3.13952
-3.25472
-3.37232
-3.31232
-3.19471
-3.07951
-2.96671
-2.85631
-2.74831
-2.64271
-2.53951
-2.43871
-2.34031
-2.24431
-2.15071
-2.05951
-1.97071
-1.88431
-1.80031
-1.71871
-1.63951
-1.56271
-1.48831
-1.41631
-1.34671
-1.27951
-1.21471
-1.15231
-1.09231
-1.03471
-0.979505
-0.926704
-0.876304
-0.828303
-0.782703
-0.739502
-0.698702
-0.660301
-0.624301
-0.5907
-0.5595
-0.5307
-0.504299
-0.480299
-0.458699
-0.439498
-0.422698
-0.408298
-0.396298
-0.386698
-0.379498
-0.374698
-0.372298
-0.372298
-0.374698
-0.379498
-0.386698
-0.396298
-0.408298
-0.422698
-0.439498
-0.458699
-0.480299
-0.504299
-0.5307
-0.5595
-0.5907
-0.624301
-0.660301
-0.698702
-0.739502
-0.782703
-0.828303
-0.876304
-0.926704
-0.979505
-1.03471
-1.09231
-1.15231
-1.21471
-1.27951
-1.34671
-1.41631
-1.48831
-1.56271
-1.63951
-1.71871
-1.80031
-1.88431
-1.97071
-2.05951
-2.15071
-2.24431
-2.34031
-2.43871
-2.53951
-2.64271
-2.74831
-2.85631
-2.96671
-3.07951
-3.19471
-3.31232
-3.25471
-3.13711
-3.02191
-2.90911
-2.79871
-2.69071
-2.58511
-2.48191
-2.38111
-2.28271
-2.18671
-2.09311
-2.00191
-1.91311
-1.82671
-1.74271
-1.66111
-1.58191
-1.50511
-1.43071
-1.35871
-1.28911
-1.22191
-1.15711
-1.09471
-1.03471
-0.977105
-0.921904
-0.869103
-0.818703
-0.770702
-0.725102
-0.681901
-0.641101
-0.602701
-0.5667
-0.5331
-0.501899
-0.473099
-0.446699
-0.422698
-0.401098
-0.381898
-0.365098
-0.350698
-0.338697
-0.329097
-0.321897
-0.317097
-0.314697
-0.314697
-0.317097
-0.321897
-0.329097
-0.338697
-0.350698
-0.365098
-0.381898
-0.401098
-0.422698
-0.446699
-0.473099
-0.501899
-0.5331
-0.5667
-0.602701
-0.641101
-0.681901
-0.725102
-0.770702
-0.818703
-0.869103
-0.921904
-0.977105
-1.03471
-1.09471
-1.15711
-1.22191
-1.28911
-1.35871
-1.43071
-1.50511
-1.58191
-1.66111
-1.74271
-1.82671
-1.91311
-2.00191
-2.09311
-2.18671
-2.28271
-2.38111
-2.48191
-2.58511
-2.69071
-2.79871
-2.90911
-3.02191
-3.13711
-3.25471
-3.19951
-3.08191
-2.96671
-2.85391
-2.74351
-2.63551
-2.52991
-2.42671
-2.32591
-2.22751
-2.13151
-2.03791
-1.94671
-1.85791
-1.77151
-1.68751
-1.60591
-1.52671
-1.44991
-1.37551
-1.30351
-1.23391
-1.16671
-1.10191
-1.03951
-0.979505
-0.921904
-0.866703
-0.813903
-0.763502
-0.715502
-0.669901
-0.626701
-0.5859
-0.5475
-0.5115
-0.477899
-0.446699
-0.417898
-0.391498
-0.367498
-0.345898
-0.326697
-0.309897
-0.295497
-0.283497
-0.273897
-0.266697
-0.261897
-0.259497
-0.259497
-0.261897
-0.266697
-0.273897
-0.283497
-0.295497
-0.309897
-0.326697
-0.345898
-0.367498
-0.391498
-0.417898
-0.446699
-0.477899
-0.5115
-0.5475
-0.5859
-0.626701
-0.669901
-0.715502
-0.763502
-0.813903
-0.866703
-0.921904
-0.979505
-1.03951
-1.10191
-1.16671
-1.23391
-1.30351
-1.37551
-1.44991
-1.52671
-1.60591
-1.68751
-1.77151
-1.85791
-1.94671
-2.03791
-2.13151
-2.22751
-2.32591
-2.42671
-2.52991
-2.63551
-2.74351
-2.85391
-2.96671
-3.08191
-3.19951
-3.14671
-3.02911
-2.91391
-2.80111
-2.69071
-2.58271
-2.47711
-2.37391
-2.27311
-2.17471
-2.07871
-1.98511
-1.89391
-1.80511
-1.71871
-1.63471
-1.55311
-1.47391
-1.39711
-1.32271
-1.25071
-1.18111
-1.11391
-1.04911
-0.986705
-0.926704
-0.869103
-0.813903
-0.761102
-0.710702
-0.662701
-0.617101
-0.5739
-0.5331
-0.494699
-0.458699
-0.425099
-0.393898
-0.365098
-0.338698
-0.314697
-0.293097
-0.273897
-0.257097
-0.242696
-0.230696
-0.221096
-0.213896
-0.209096
-0.206696
-0.206696
-0.209096
-0.213896
-0.221096
-0.230696
-0.242696
-0.257097
-0.273897
-0.293097
-0.314697
-0.338698
-0.365098
-0.393898
-0.425099
-0.458699
-0.494699
-0.5331
-0.5739
-0.617101
-0.662701
-0.710702
-0.761102
-0.813903
-0.869103
-0.926704
-0.986705
-1.04911
-1.11391
-1.18111
-1.25071
-1.32271
-1.39711
-1.47391
-1.55311
-1.63471
-1.71871
-1.80511
-1.89391
-1.98511
-2.07871
-2.17471
-2.27311
-2.37391
-2.47711
-2.58271
-2.69071
-2.80111
-2.91391
-3.02911
-3.14671
-3.09631
-2.97871
-2.86351
-2.75071
-2.64031
-2.53231
-2.42671
-2.32351
-2.22271
-2.12431
-2.02831
-1.93471
-1.84351
-1.75471
-1.66831
-1.58431
-1.50271
-1.42351
-1.34671
-1.27231
-1.20031
-1.13071
-1.06351
-0.998705
-0.936304
-0.876304
-0.818703
-0.763502
-0.710702
-0.660301
-0.612301
-0.5667
-0.5235
-0.482699
-0.444299
-0.408299
-0.374698
-0.343498
-0.314697
-0.288297
-0.264297
-0.242697
-0.223496
-0.206696
-0.192296
-0.180296
-0.170696
-0.163496
-0.158696
-0.156296
-0.156296
-0.158696
-0.163496
-0.170696
-0.180296
-0.192296
-0.206696
-0.223496
-0.242697
-0.264297
-0.288297
-0.314697
-0.343498
-0.374698
-0.408299
-0.444299
-0.482699
-0.5235
-0.5667
-0.612301
-0.660301
-0.710702
-0.763502
-0.818703
-0.876304
-0.936304
-0.998705
-1.06351
-1.13071
-1.20031
-1.27231
-1.34671
-1.42351
-1.50271
-1.58431
-1.66831
-1.75471
-1.84351
-1.93471
-2.02831
-2.12431
-2.22271
-2.32351
-2.42671
-2.53231
-2.64031
-2.75071
-2.86351
-2.97871
-3.09631
-3.04831
-2.93071
-2.81551
-2.70271
-2.59231
-2.48431
-2.37871
-2.27551
-2.17471
-2.07631
-1.98031
-1.88671
-1.79551
-1.70671
-1.62031
-1.53631
-1.45471
-1.37551
-1.29871
-1.22431
-1.15231
-1.08271
-1.0155
-0.950704
-0.888304
-0.828303
-0.770702
-0.715502
-0.662701
-0.612301
-0.5643
-0.5187
-0.475499
-0.434699
-0.396298
-0.360298
-0.326698
-0.295497
-0.266697
-0.240297
-0.216296
-0.194696
-0.175496
-0.158696
-0.144296
-0.132295
-0.122695
-0.115495
-0.110695
-0.108295
-0.108295
-0.110695
-0.115495
-0.122695
-0.132295
-0.144296
-0.158696
-0.175496
-0.194696
-0.216296
-0.240297
-0.266697
-0.295497
-0.326698
-0.360298
-0.396298
-0.434699
-0.475499
-0.5187
-0.5643
-0.612301
-0.662701
-0.715502
-0.770702
-0.828303
-0.888304
-0.950704
-1.0155
-1.08271
-1.15231
-1.22431
-1.29871
-1.37551
-1.45471
-1.53631
-1.62031
-1.70671
-1.79551
-1.88671
-1.98031
-2.07631
-2.17471
-2.27551
-2.37871
-2.48431
-2.59231
-2.70271
-2.81551
-2.93071
-3.04831
-3.00271
-2.88511
-2.76991
-2.65711
-2.54671
-2.43871
-2.33311
-2.22991
-2.12911
-2.03071
-1.93471
-1.84111
-1.74991
-1.66111
-1.57471
-1.49071
-1.40911
-1.32991
-1.25311
-1.17871
-1.10671
-1.0371
-0.969904
-0.905104
-0.842703
-0.782703
-0.725102
-0.669901
-0.617101
-0.5667
-0.5187
-0.473099
-0.429899
-0.389098
-0.350698
-0.314698
-0.281097
-0.249897
-0.221097
-0.194696
-0.170696
-0.149096
-0.129895
-0.113095
-0.0986951
-0.086695
-0.0770949
-0.0698948
-0.0650947
-0.0626947
-0.0626947
-0.0650947
-0.0698948
-0.0770949
-0.086695
-0.0986951
-0.113095
-0.129895
-0.149096
-0.170696
-0.194696
-0.221097
-0.249897
-0.281097
-0.314698
-0.350698
-0.389098
-0.429899
-0.473099
-0.5187
-0.5667
-0.617101
-0.669901
-0.725102
-0.782703
-0.842703
-0.905104
-0.969904
-1.0371
-1.10671
-1.17871
-1.25311
-1.32991
-1.40911
-1.49071
-1.57471
-1.66111
-1.74991
-1.84111
-1.93471
-2.03071
-2.12911
-2.22991
-2.33311
-2.43871
-2.54671