/*--------------------------------*- C++ -*----------------------------------*\
| =========                 |                                                 |
| \\      /  F ield         | OpenFOAM: The Open Source CFD Toolbox           |
|  \\    /   O peration     | Version:  v1806                                 |
|   \\  /    A nd           | Web:      www.OpenFOAM.com                      |
|    \\/     M anipulation  |                                                 |
\*---------------------------------------------------------------------------*/
FoamFile
{
    version     2.0;
    format      ascii;
    class       volScalarField;
    location    "2";
    object      p;
}
// * * * * * * * * * * * * * * * * * * * * * * * * * * * * * * * * * * * * * //

dimensions      [0 0 0 0 0 0 0];


internalField   nonuniform List<scalar> 
10000
(
-5.60439
-5.48679
-5.37159
-5.25879
-5.14839
-5.04039
-4.93479
-4.83159
-4.7308
-4.6324
-4.5364
-4.4428
-4.3516
-4.2628
-4.1764
-4.0924
-4.0108
-3.93161
-3.85481
-3.78041
-3.70841
-3.63881
-3.57161
-3.50681
-3.44442
-3.38442
-3.32682
-3.27162
-3.21882
-3.16842
-3.12042
-3.07483
-3.03163
-2.99083
-2.95243
-2.91643
-2.88283
-2.85163
-2.82283
-2.79644
-2.77244
-2.75084
-2.73164
-2.71484
-2.70044
-2.68844
-2.67884
-2.67164
-2.66684
-2.66444
-2.66444
-2.66684
-2.67164
-2.67884
-2.68844
-2.70044
-2.71484
-2.73164
-2.75084
-2.77244
-2.79644
-2.82283
-2.85163
-2.88283
-2.91643
-2.95243
-2.99083
-3.03163
-3.07483
-3.12042
-3.16842
-3.21882
-3.27162
-3.32682
-3.38442
-3.44442
-3.50681
-3.57161
-3.63881
-3.70841
-3.78041
-3.85481
-3.93161
-4.0108
-4.0924
-4.1764
-4.2628
-4.3516
-4.4428
-4.5364
-4.6324
-4.7308
-4.83159
-4.93479
-5.04039
-5.14839
-5.25879
-5.37159
-5.48679
-5.60439
-5.48679
-5.36919
-5.25399
-5.14119
-5.03079
-4.92279
-4.81719
-4.71399
-4.6132
-4.5148
-4.4188
-4.3252
-4.234
-4.1452
-4.0588
-3.9748
-3.8932
-3.81401
-3.73721
-3.66281
-3.59081
-3.52121
-3.45401
-3.38921
-3.32682
-3.26682
-3.20922
-3.15402
-3.10122
-3.05082
-3.00282
-2.95723
-2.91403
-2.87323
-2.83483
-2.79883
-2.76523
-2.73403
-2.70524
-2.67884
-2.65484
-2.63324
-2.61404
-2.59724
-2.58284
-2.57084
-2.56124
-2.55404
-2.54924
-2.54684
-2.54684
-2.54924
-2.55404
-2.56124
-2.57084
-2.58284
-2.59724
-2.61404
-2.63324
-2.65484
-2.67884
-2.70524
-2.73403
-2.76523
-2.79883
-2.83483
-2.87323
-2.91403
-2.95723
-3.00282
-3.05082
-3.10122
-3.15402
-3.20922
-3.26682
-3.32682
-3.38921
-3.45401
-3.52121
-3.59081
-3.66281
-3.73721
-3.81401
-3.8932
-3.9748
-4.0588
-4.1452
-4.234
-4.3252
-4.4188
-4.5148
-4.6132
-4.71399
-4.81719
-4.92279
-5.03079
-5.14119
-5.25399
-5.36919
-5.48679
-5.37159
-5.25399
-5.13879
-5.02599
-4.91559
-4.80759
-4.70199
-4.59879
-4.498
-4.3996
-4.3036
-4.21
-4.1188
-4.03
-3.9436
-3.8596
-3.778
-3.69881
-3.62201
-3.54761
-3.47561
-3.40601
-3.33881
-3.27401
-3.21162
-3.15162
-3.09402
-3.03882
-2.98602
-2.93562
-2.88763
-2.84203
-2.79883
-2.75803
-2.71963
-2.68363
-2.65003
-2.61883
-2.59004
-2.56364
-2.53964
-2.51804
-2.49884
-2.48204
-2.46764
-2.45564
-2.44604
-2.43884
-2.43404
-2.43164
-2.43164
-2.43404
-2.43884
-2.44604
-2.45564
-2.46764
-2.48204
-2.49884
-2.51804
-2.53964
-2.56364
-2.59004
-2.61883
-2.65003
-2.68363
-2.71963
-2.75803
-2.79883
-2.84203
-2.88763
-2.93562
-2.98602
-3.03882
-3.09402
-3.15162
-3.21162
-3.27401
-3.33881
-3.40601
-3.47561
-3.54761
-3.62201
-3.69881
-3.778
-3.8596
-3.9436
-4.03
-4.1188
-4.21
-4.3036
-4.3996
-4.498
-4.59879
-4.70199
-4.80759
-4.91559
-5.02599
-5.13879
-5.25399
-5.37159
-5.25879
-5.14119
-5.02599
-4.91319
-4.80279
-4.69479
-4.58919
-4.486
-4.3852
-4.2868
-4.1908
-4.0972
-4.006
-3.9172
-3.8308
-3.7468
-3.6652
-3.58601
-3.50921
-3.43481
-3.36281
-3.29321
-3.22601
-3.16121
-3.09882
-3.03882
-2.98122
-2.92602
-2.87322
-2.82282
-2.77483
-2.72923
-2.68603
-2.64523
-2.60683
-2.57083
-2.53723
-2.50603
-2.47724
-2.45084
-2.42684
-2.40524
-2.38604
-2.36924
-2.35484
-2.34284
-2.33324
-2.32604
-2.32124
-2.31884
-2.31884
-2.32124
-2.32604
-2.33324
-2.34284
-2.35484
-2.36924
-2.38604
-2.40524
-2.42684
-2.45084
-2.47724
-2.50603
-2.53723
-2.57083
-2.60683
-2.64523
-2.68603
-2.72923
-2.77483
-2.82282
-2.87322
-2.92602
-2.98122
-3.03882
-3.09882
-3.16121
-3.22601
-3.29321
-3.36281
-3.43481
-3.50921
-3.58601
-3.6652
-3.7468
-3.8308
-3.9172
-4.006
-4.0972
-4.1908
-4.2868
-4.3852
-4.486
-4.58919
-4.69479
-4.80279
-4.91319
-5.02599
-5.14119
-5.25879
-5.14839
-5.03079
-4.91559
-4.80279
-4.69239
-4.58439
-4.47879
-4.3756
-4.2748
-4.1764
-4.0804
-3.9868
-3.8956
-3.8068
-3.7204
-3.6364
-3.5548
-3.47561
-3.39881
-3.32441
-3.25241
-3.18281
-3.11561
-3.05082
-2.98842
-2.92842
-2.87082
-2.81562
-2.76282
-2.71242
-2.66443
-2.61883
-2.57563
-2.53483
-2.49643
-2.46043
-2.42683
-2.39564
-2.36684
-2.34044
-2.31644
-2.29484
-2.27564
-2.25884
-2.24444
-2.23244
-2.22284
-2.21564
-2.21084
-2.20844
-2.20844
-2.21084
-2.21564
-2.22284
-2.23244
-2.24444
-2.25884
-2.27564
-2.29484
-2.31644
-2.34044
-2.36684
-2.39564
-2.42683
-2.46043
-2.49643
-2.53483
-2.57563
-2.61883
-2.66443
-2.71242
-2.76282
-2.81562
-2.87082
-2.92842
-2.98842
-3.05082
-3.11561
-3.18281
-3.25241
-3.32441
-3.39881
-3.47561
-3.5548
-3.6364
-3.7204
-3.8068
-3.8956
-3.9868
-4.0804
-4.1764
-4.2748
-4.3756
-4.47879
-4.58439
-4.69239
-4.80279
-4.91559
-5.03079
-5.14839
-5.04039
-4.92279
-4.80759
-4.69479
-4.58439
-4.47639
-4.3708
-4.2676
-4.1668
-4.0684
-3.9724
-3.8788
-3.7876
-3.6988
-3.6124
-3.5284
-3.44681
-3.36761
-3.29081
-3.21641
-3.14441
-3.07481
-3.00761
-2.94282
-2.88042
-2.82042
-2.76282
-2.70762
-2.65482
-2.60443
-2.55643
-2.51083
-2.46763
-2.42683
-2.38843
-2.35243
-2.31883
-2.28764
-2.25884
-2.23244
-2.20844
-2.18684
-2.16764
-2.15084
-2.13644
-2.12444
-2.11484
-2.10764
-2.10284
-2.10044
-2.10044
-2.10284
-2.10764
-2.11484
-2.12444
-2.13644
-2.15084
-2.16764
-2.18684
-2.20844
-2.23244
-2.25884
-2.28764
-2.31883
-2.35243
-2.38843
-2.42683
-2.46763
-2.51083
-2.55643
-2.60443
-2.65482
-2.70762
-2.76282
-2.82042
-2.88042
-2.94282
-3.00761
-3.07481
-3.14441
-3.21641
-3.29081
-3.36761
-3.44681
-3.5284
-3.6124
-3.6988
-3.7876
-3.8788
-3.9724
-4.0684
-4.1668
-4.2676
-4.3708
-4.47639
-4.58439
-4.69479
-4.80759
-4.92279
-5.04039
-4.93479
-4.81719
-4.70199
-4.58919
-4.47879
-4.3708
-4.2652
-4.162
-4.0612
-3.9628
-3.8668
-3.7732
-3.682
-3.5932
-3.5068
-3.4228
-3.34121
-3.26201
-3.18521
-3.11081
-3.03881
-2.96921
-2.90201
-2.83722
-2.77482
-2.71482
-2.65722
-2.60202
-2.54922
-2.49883
-2.45083
-2.40523
-2.36203
-2.32123
-2.28283
-2.24683
-2.21324
-2.18204
-2.15324
-2.12684
-2.10284
-2.08124
-2.06204
-2.04524
-2.03084
-2.01884
-2.00924
-2.00204
-1.99724
-1.99484
-1.99484
-1.99724
-2.00204
-2.00924
-2.01884
-2.03084
-2.04524
-2.06204
-2.08124
-2.10284
-2.12684
-2.15324
-2.18204
-2.21324
-2.24683
-2.28283
-2.32123
-2.36203
-2.40523
-2.45083
-2.49883
-2.54922
-2.60202
-2.65722
-2.71482
-2.77482
-2.83722
-2.90201
-2.96921
-3.03881
-3.11081
-3.18521
-3.26201
-3.34121
-3.4228
-3.5068
-3.5932
-3.682
-3.7732
-3.8668
-3.9628
-4.0612
-4.162
-4.2652
-4.3708
-4.47879
-4.58919
-4.70199
-4.81719
-4.93479
-4.83159
-4.71399
-4.59879
-4.486
-4.3756
-4.2676
-4.162
-4.0588
-3.958
-3.8596
-3.7636
-3.67
-3.5788
-3.49
-3.4036
-3.31961
-3.23801
-3.15881
-3.08201
-3.00761
-2.93561
-2.86601
-2.79882
-2.73402
-2.67162
-2.61162
-2.55402
-2.49882
-2.44603
-2.39563
-2.34763
-2.30203
-2.25883
-2.21803
-2.17963
-2.14364
-2.11004
-2.07884
-2.05004
-2.02364
-1.99964
-1.97804
-1.95884
-1.94204
-1.92764
-1.91564
-1.90604
-1.89884
-1.89404
-1.89165
-1.89165
-1.89404
-1.89884
-1.90604
-1.91564
-1.92764
-1.94204
-1.95884
-1.97804
-1.99964
-2.02364
-2.05004
-2.07884
-2.11004
-2.14364
-2.17963
-2.21803
-2.25883
-2.30203
-2.34763
-2.39563
-2.44603
-2.49882
-2.55402
-2.61162
-2.67162
-2.73402
-2.79882
-2.86601
-2.93561
-3.00761
-3.08201
-3.15881
-3.23801
-3.31961
-3.4036
-3.49
-3.5788
-3.67
-3.7636
-3.8596
-3.958
-4.0588
-4.162
-4.2676
-4.3756
-4.486
-4.59879
-4.71399
-4.83159
-4.7308
-4.6132
-4.498
-4.3852
-4.2748
-4.1668
-4.0612
-3.958
-3.8572
-3.7588
-3.6628
-3.5692
-3.478
-3.3892
-3.30281
-3.21881
-3.13721
-3.05801
-2.98121
-2.90681
-2.83481
-2.76522
-2.69802
-2.63322
-2.57082
-2.51082
-2.45322
-2.39802
-2.34523
-2.29483
-2.24683
-2.20123
-2.15803
-2.11723
-2.07883
-2.04284
-2.00924
-1.97804
-1.94924
-1.92284
-1.89884
-1.87724
-1.85804
-1.84124
-1.82684
-1.81485
-1.80525
-1.79805
-1.79325
-1.79085
-1.79085
-1.79325
-1.79805
-1.80525
-1.81485
-1.82684
-1.84124
-1.85804
-1.87724
-1.89884
-1.92284
-1.94924
-1.97804
-2.00924
-2.04284
-2.07883
-2.11723
-2.15803
-2.20123
-2.24683
-2.29483
-2.34523
-2.39802
-2.45322
-2.51082
-2.57082
-2.63322
-2.69802
-2.76522
-2.83481
-2.90681
-2.98121
-3.05801
-3.13721
-3.21881
-3.30281
-3.3892
-3.478
-3.5692
-3.6628
-3.7588
-3.8572
-3.958
-4.0612
-4.1668
-4.2748
-4.3852
-4.498
-4.6132
-4.7308
-4.6324
-4.5148
-4.3996
-4.2868
-4.1764
-4.0684
-3.9628
-3.8596
-3.7588
-3.6604
-3.5644
-3.4708
-3.3796
-3.2908
-3.20441
-3.12041
-3.03881
-2.95961
-2.88281
-2.80841
-2.73641
-2.66682
-2.59962
-2.53482
-2.47242
-2.41242
-2.35482
-2.29963
-2.24683
-2.19643
-2.14843
-2.10283
-2.05963
-2.01883
-1.98044
-1.94444
-1.91084
-1.87964
-1.85084
-1.82444
-1.80044
-1.77884
-1.75964
-1.74285
-1.72845
-1.71645
-1.70685
-1.69965
-1.69485
-1.69245
-1.69245
-1.69485
-1.69965
-1.70685
-1.71645
-1.72845
-1.74285
-1.75964
-1.77884
-1.80044
-1.82444
-1.85084
-1.87964
-1.91084
-1.94444
-1.98044
-2.01883
-2.05963
-2.10283
-2.14843
-2.19643
-2.24683
-2.29963
-2.35482
-2.41242
-2.47242
-2.53482
-2.59962
-2.66682
-2.73641
-2.80841
-2.88281
-2.95961
-3.03881
-3.12041
-3.20441
-3.2908
-3.3796
-3.4708
-3.5644
-3.6604
-3.7588
-3.8596
-3.9628
-4.0684
-4.1764
-4.2868
-4.3996
-4.5148
-4.6324
-4.5364
-4.4188
-4.3036
-4.1908
-4.0804
-3.9724
-3.8668
-3.7636
-3.6628
-3.5644
-3.4684
-3.3748
-3.2836
-3.19481
-3.10841
-3.02441
-2.94281
-2.86361
-2.78681
-2.71241
-2.64042
-2.57082
-2.50362
-2.43882
-2.37642
-2.31642
-2.25883
-2.20363
-2.15083
-2.10043
-2.05243
-2.00683
-1.96363
-1.92284
-1.88444
-1.84844
-1.81484
-1.78364
-1.75484
-1.72844
-1.70444
-1.68285
-1.66365
-1.64685
-1.63245
-1.62045
-1.61085
-1.60365
-1.59885
-1.59645
-1.59645
-1.59885
-1.60365
-1.61085
-1.62045
-1.63245
-1.64685
-1.66365
-1.68285
-1.70444
-1.72844
-1.75484
-1.78364
-1.81484
-1.84844
-1.88444
-1.92284
-1.96363
-2.00683
-2.05243
-2.10043
-2.15083
-2.20363
-2.25883
-2.31642
-2.37642
-2.43882
-2.50362
-2.57082
-2.64042
-2.71241
-2.78681
-2.86361
-2.94281
-3.02441
-3.10841
-3.19481
-3.2836
-3.3748
-3.4684
-3.5644
-3.6628
-3.7636
-3.8668
-3.9724
-4.0804
-4.1908
-4.3036
-4.4188
-4.5364
-4.4428
-4.3252
-4.21
-4.0972
-3.9868
-3.8788
-3.7732
-3.67
-3.5692
-3.4708
-3.3748
-3.2812
-3.19001
-3.10121
-3.01481
-2.93081
-2.84921
-2.77001
-2.69321
-2.61882
-2.54682
-2.47722
-2.41002
-2.34522
-2.28282
-2.22282
-2.16523
-2.11003
-2.05723
-2.00683
-1.95883
-1.91323
-1.87004
-1.82924
-1.79084
-1.75484
-1.72124
-1.69004
-1.66124
-1.63484
-1.61085
-1.58925
-1.57005
-1.55325
-1.53885
-1.52685
-1.51725
-1.51005
-1.50525
-1.50285
-1.50285
-1.50525
-1.51005
-1.51725
-1.52685
-1.53885
-1.55325
-1.57005
-1.58925
-1.61085
-1.63484
-1.66124
-1.69004
-1.72124
-1.75484
-1.79084
-1.82924
-1.87004
-1.91323
-1.95883
-2.00683
-2.05723
-2.11003
-2.16523
-2.22282
-2.28282
-2.34522
-2.41002
-2.47722
-2.54682
-2.61882
-2.69321
-2.77001
-2.84921
-2.93081
-3.01481
-3.10121
-3.19001
-3.2812
-3.3748
-3.4708
-3.5692
-3.67
-3.7732
-3.8788
-3.9868
-4.0972
-4.21
-4.3252
-4.4428
-4.3516
-4.234
-4.1188
-4.006
-3.8956
-3.7876
-3.682
-3.5788
-3.478
-3.3796
-3.2836
-3.19001
-3.09881
-3.01001
-2.92361
-2.83961
-2.75801
-2.67881
-2.60201
-2.52762
-2.45562
-2.38602
-2.31882
-2.25402
-2.19162
-2.13163
-2.07403
-2.01883
-1.96603
-1.91563
-1.86763
-1.82204
-1.77884
-1.73804
-1.69964
-1.66364
-1.63004
-1.59884
-1.57004
-1.54365
-1.51965
-1.49805
-1.47885
-1.46205
-1.44765
-1.43565
-1.42605
-1.41885
-1.41405
-1.41165
-1.41165
-1.41405
-1.41885
-1.42605
-1.43565
-1.44765
-1.46205
-1.47885
-1.49805
-1.51965
-1.54365
-1.57004
-1.59884
-1.63004
-1.66364
-1.69964
-1.73804
-1.77884
-1.82204
-1.86763
-1.91563
-1.96603
-2.01883
-2.07403
-2.13163
-2.19162
-2.25402
-2.31882
-2.38602
-2.45562
-2.52762
-2.60201
-2.67881
-2.75801
-2.83961
-2.92361
-3.01001
-3.09881
-3.19001
-3.2836
-3.3796
-3.478
-3.5788
-3.682
-3.7876
-3.8956
-4.006
-4.1188
-4.234
-4.3516
-4.2628
-4.1452
-4.03
-3.9172
-3.8068
-3.6988
-3.5932
-3.49
-3.3892
-3.2908
-3.19481
-3.10121
-3.01001
-2.92121
-2.83481
-2.75081
-2.66921
-2.59001
-2.51322
-2.43882
-2.36682
-2.29722
-2.23002
-2.16522
-2.10283
-2.04283
-1.98523
-1.93003
-1.87723
-1.82683
-1.77884
-1.73324
-1.69004
-1.64924
-1.61084
-1.57484
-1.54124
-1.51005
-1.48125
-1.45485
-1.43085
-1.40925
-1.39005
-1.37325
-1.35885
-1.34685
-1.33725
-1.33005
-1.32525
-1.32285
-1.32285
-1.32525
-1.33005
-1.33725
-1.34685
-1.35885
-1.37325
-1.39005
-1.40925
-1.43085
-1.45485
-1.48125
-1.51005
-1.54124
-1.57484
-1.61084
-1.64924
-1.69004
-1.73324
-1.77884
-1.82683
-1.87723
-1.93003
-1.98523
-2.04283
-2.10283
-2.16522
-2.23002
-2.29722
-2.36682
-2.43882
-2.51322
-2.59001
-2.66921
-2.75081
-2.83481
-2.92121
-3.01001
-3.10121
-3.19481
-3.2908
-3.3892
-3.49
-3.5932
-3.6988
-3.8068
-3.9172
-4.03
-4.1452
-4.2628
-4.1764
-4.0588
-3.9436
-3.8308
-3.7204
-3.6124
-3.5068
-3.4036
-3.30281
-3.20441
-3.10841
-3.01481
-2.92361
-2.83481
-2.74841
-2.66441
-2.58281
-2.50362
-2.42682
-2.35242
-2.28042
-2.21082
-2.14362
-2.07883
-2.01643
-1.95643
-1.89883
-1.84363
-1.79083
-1.74044
-1.69244
-1.64684
-1.60364
-1.56284
-1.52444
-1.48844
-1.45485
-1.42365
-1.39485
-1.36845
-1.34445
-1.32285
-1.30365
-1.28685
-1.27245
-1.26045
-1.25085
-1.24365
-1.23885
-1.23645
-1.23645
-1.23885
-1.24365
-1.25085
-1.26045
-1.27245
-1.28685
-1.30365
-1.32285
-1.34445
-1.36845
-1.39485
-1.42365
-1.45485
-1.48844
-1.52444
-1.56284
-1.60364
-1.64684
-1.69244
-1.74044
-1.79083
-1.84363
-1.89883
-1.95643
-2.01643
-2.07883
-2.14362
-2.21082
-2.28042
-2.35242
-2.42682
-2.50362
-2.58281
-2.66441
-2.74841
-2.83481
-2.92361
-3.01481
-3.10841
-3.20441
-3.30281
-3.4036
-3.5068
-3.6124
-3.7204
-3.8308
-3.9436
-4.0588
-4.1764
-4.0924
-3.9748
-3.8596
-3.7468
-3.6364
-3.5284
-3.4228
-3.31961
-3.21881
-3.12041
-3.02441
-2.93081
-2.83961
-2.75081
-2.66441
-2.58041
-2.49882
-2.41962
-2.34282
-2.26842
-2.19642
-2.12682
-2.05963
-1.99483
-1.93243
-1.87243
-1.81483
-1.75963
-1.70684
-1.65644
-1.60844
-1.56284
-1.51964
-1.47884
-1.44044
-1.40445
-1.37085
-1.33965
-1.31085
-1.28445
-1.26045
-1.23885
-1.21965
-1.20285
-1.18845
-1.17646
-1.16686
-1.15966
-1.15486
-1.15246
-1.15246
-1.15486
-1.15966
-1.16686
-1.17646
-1.18845
-1.20285
-1.21965
-1.23885
-1.26045
-1.28445
-1.31085
-1.33965
-1.37085
-1.40445
-1.44044
-1.47884
-1.51964
-1.56284
-1.60844
-1.65644
-1.70684
-1.75963
-1.81483
-1.87243
-1.93243
-1.99483
-2.05963
-2.12682
-2.19642
-2.26842
-2.34282
-2.41962
-2.49882
-2.58041
-2.66441
-2.75081
-2.83961
-2.93081
-3.02441
-3.12041
-3.21881
-3.31961
-3.4228
-3.5284
-3.6364
-3.7468
-3.8596
-3.9748
-4.0924
-4.0108
-3.8932
-3.778
-3.6652
-3.5548
-3.44681
-3.34121
-3.23801
-3.13721
-3.03881
-2.94281
-2.84921
-2.75801
-2.66921
-2.58281
-2.49882
-2.41722
-2.33802
-2.26122
-2.18682
-2.11482
-2.04523
-1.97803
-1.91323
-1.85083
-1.79083
-1.73323
-1.67804
-1.62524
-1.57484
-1.52684
-1.48124
-1.43804
-1.39725
-1.35885
-1.32285
-1.28925
-1.25805
-1.22925
-1.20285
-1.17885
-1.15725
-1.13806
-1.12126
-1.10686
-1.09486
-1.08526
-1.07806
-1.07326
-1.07086
-1.07086
-1.07326
-1.07806
-1.08526
-1.09486
-1.10686
-1.12126
-1.13806
-1.15725
-1.17885
-1.20285
-1.22925
-1.25805
-1.28925
-1.32285
-1.35885
-1.39725
-1.43804
-1.48124
-1.52684
-1.57484
-1.62524
-1.67804
-1.73323
-1.79083
-1.85083
-1.91323
-1.97803
-2.04523
-2.11482
-2.18682
-2.26122
-2.33802
-2.41722
-2.49882
-2.58281
-2.66921
-2.75801
-2.84921
-2.94281
-3.03881
-3.13721
-3.23801
-3.34121
-3.44681
-3.5548
-3.6652
-3.778
-3.8932
-4.0108
-3.93161
-3.81401
-3.69881
-3.58601
-3.47561
-3.36761
-3.26201
-3.15881
-3.05801
-2.95961
-2.86361
-2.77001
-2.67881
-2.59001
-2.50362
-2.41962
-2.33802
-2.25882
-2.18202
-2.10762
-2.03563
-1.96603
-1.89883
-1.83403
-1.77163
-1.71163
-1.65404
-1.59884
-1.54604
-1.49564
-1.44764
-1.40204
-1.35885
-1.31805
-1.27965
-1.24365
-1.21005
-1.17885
-1.15005
-1.12365
-1.09966
-1.07806
-1.05886
-1.04206
-1.02766
-1.01566
-1.00606
-0.998859
-0.99406
-0.99166
-0.99166
-0.99406
-0.998859
-1.00606
-1.01566
-1.02766
-1.04206
-1.05886
-1.07806
-1.09966
-1.12365
-1.15005
-1.17885
-1.21005
-1.24365
-1.27965
-1.31805
-1.35885
-1.40204
-1.44764
-1.49564
-1.54604
-1.59884
-1.65404
-1.71163
-1.77163
-1.83403
-1.89883
-1.96603
-2.03563
-2.10762
-2.18202
-2.25882
-2.33802
-2.41962
-2.50362
-2.59001
-2.67881
-2.77001
-2.86361
-2.95961
-3.05801
-3.15881
-3.26201
-3.36761
-3.47561
-3.58601
-3.69881
-3.81401
-3.93161
-3.85481
-3.73721
-3.62201
-3.50921
-3.39881
-3.29081
-3.18521
-3.08201
-2.98121
-2.88281
-2.78681
-2.69321
-2.60201
-2.51322
-2.42682
-2.34282
-2.26122
-2.18202
-2.10522
-2.03083
-1.95883
-1.88923
-1.82203
-1.75723
-1.69483
-1.63484
-1.57724
-1.52204
-1.46924
-1.41884
-1.37084
-1.32525
-1.28205
-1.24125
-1.20285
-1.16685
-1.13325
-1.10205
-1.07326
-1.04686
-1.02286
-1.00126
-0.982059
-0.965259
-0.95086
-0.93886
-0.929261
-0.922061
-0.917261
-0.914861
-0.914861
-0.917261
-0.922061
-0.929261
-0.93886
-0.95086
-0.965259
-0.982059
-1.00126
-1.02286
-1.04686
-1.07326
-1.10205
-1.13325
-1.16685
-1.20285
-1.24125
-1.28205
-1.32525
-1.37084
-1.41884
-1.46924
-1.52204
-1.57724
-1.63484
-1.69483
-1.75723
-1.82203
-1.88923
-1.95883
-2.03083
-2.10522
-2.18202
-2.26122
-2.34282
-2.42682
-2.51322
-2.60201
-2.69321
-2.78681
-2.88281
-2.98121
-3.08201
-3.18521
-3.29081
-3.39881
-3.50921
-3.62201
-3.73721
-3.85481
-3.78041
-3.66281
-3.54761
-3.43481
-3.32441
-3.21641
-3.11081
-3.00761
-2.90681
-2.80841
-2.71241
-2.61882
-2.52762
-2.43882
-2.35242
-2.26842
-2.18682
-2.10762
-2.03083
-1.95643
-1.88443
-1.81483
-1.74763
-1.68283
-1.62044
-1.56044
-1.50284
-1.44764
-1.39484
-1.34444
-1.29645
-1.25085
-1.20765
-1.16685
-1.12845
-1.09245
-1.05885
-1.02766
-0.998857
-0.972458
-0.948459
-0.92686
-0.90766
-0.890861
-0.876462
-0.864462
-0.854863
-0.847663
-0.842863
-0.840463
-0.840463
-0.842863
-0.847663
-0.854863
-0.864462
-0.876462
-0.890861
-0.90766
-0.92686
-0.948459
-0.972458
-0.998857
-1.02766
-1.05885
-1.09245
-1.12845
-1.16685
-1.20765
-1.25085
-1.29645
-1.34444
-1.39484
-1.44764
-1.50284
-1.56044
-1.62044
-1.68283
-1.74763
-1.81483
-1.88443
-1.95643
-2.03083
-2.10762
-2.18682
-2.26842
-2.35242
-2.43882
-2.52762
-2.61882
-2.71241
-2.80841
-2.90681
-3.00761
-3.11081
-3.21641
-3.32441
-3.43481
-3.54761
-3.66281
-3.78041
-3.70841
-3.59081
-3.47561
-3.36281
-3.25241
-3.14441
-3.03881
-2.93561
-2.83481
-2.73641
-2.64042
-2.54682
-2.45562
-2.36682
-2.28042
-2.19642
-2.11482
-2.03563
-1.95883
-1.88443
-1.81243
-1.74283
-1.67563
-1.61084
-1.54844
-1.48844
-1.43084
-1.37564
-1.32284
-1.27245
-1.22445
-1.17885
-1.13565
-1.09485
-1.05645
-1.02045
-0.986856
-0.955657
-0.926859
-0.90046
-0.876461
-0.854861
-0.835662
-0.818863
-0.804463
-0.792464
-0.782864
-0.775665
-0.770865
-0.768465
-0.768465
-0.770865
-0.775665
-0.782864
-0.792464
-0.804463
-0.818863
-0.835662
-0.854861
-0.876461
-0.90046
-0.926859
-0.955657
-0.986856
-1.02045
-1.05645
-1.09485
-1.13565
-1.17885
-1.22445
-1.27245
-1.32284
-1.37564
-1.43084
-1.48844
-1.54844
-1.61084
-1.67563
-1.74283
-1.81243
-1.88443
-1.95883
-2.03563
-2.11482
-2.19642
-2.28042
-2.36682
-2.45562
-2.54682
-2.64042
-2.73641
-2.83481
-2.93561
-3.03881
-3.14441
-3.25241
-3.36281
-3.47561
-3.59081
-3.70841
-3.63881
-3.52121
-3.40601
-3.29321
-3.18281
-3.07481
-2.96921
-2.86601
-2.76522
-2.66682
-2.57082
-2.47722
-2.38602
-2.29722
-2.21082
-2.12682
-2.04523
-1.96603
-1.88923
-1.81483
-1.74283
-1.67323
-1.60604
-1.54124
-1.47884
-1.41884
-1.36124
-1.30604
-1.25325
-1.20285
-1.15485
-1.10925
-1.06605
-1.02525
-0.986855
-0.950857
-0.917258
-0.886059
-0.85726
-0.830861
-0.806862
-0.785263
-0.766064
-0.749265
-0.734865
-0.722866
-0.713266
-0.706066
-0.701266
-0.698867
-0.698867
-0.701266
-0.706066
-0.713266
-0.722866
-0.734865
-0.749265
-0.766064
-0.785263
-0.806862
-0.830861
-0.85726
-0.886059
-0.917258
-0.950857
-0.986855
-1.02525
-1.06605
-1.10925
-1.15485
-1.20285
-1.25325
-1.30604
-1.36124
-1.41884
-1.47884
-1.54124
-1.60604
-1.67323
-1.74283
-1.81483
-1.88923
-1.96603
-2.04523
-2.12682
-2.21082
-2.29722
-2.38602
-2.47722
-2.57082
-2.66682
-2.76522
-2.86601
-2.96921
-3.07481
-3.18281
-3.29321
-3.40601
-3.52121
-3.63881
-3.57161
-3.45401
-3.33881
-3.22601
-3.11561
-3.00761
-2.90201
-2.79882
-2.69802
-2.59962
-2.50362
-2.41002
-2.31882
-2.23002
-2.14362
-2.05963
-1.97803
-1.89883
-1.82203
-1.74763
-1.67563
-1.60604
-1.53884
-1.47404
-1.41164
-1.35164
-1.29404
-1.23885
-1.18605
-1.13565
-1.08765
-1.04205
-0.998854
-0.958056
-0.919657
-0.883659
-0.85006
-0.818861
-0.790062
-0.763663
-0.739664
-0.718065
-0.698866
-0.682066
-0.667667
-0.655667
-0.646068
-0.638868
-0.634068
-0.631668
-0.631668
-0.634068
-0.638868
-0.646068
-0.655667
-0.667667
-0.682066
-0.698866
-0.718065
-0.739664
-0.763663
-0.790062
-0.818861
-0.85006
-0.883659
-0.919657
-0.958056
-0.998854
-1.04205
-1.08765
-1.13565
-1.18605
-1.23885
-1.29404
-1.35164
-1.41164
-1.47404
-1.53884
-1.60604
-1.67563
-1.74763
-1.82203
-1.89883
-1.97803
-2.05963
-2.14362
-2.23002
-2.31882
-2.41002
-2.50362
-2.59962
-2.69802
-2.79882
-2.90201
-3.00761
-3.11561
-3.22601
-3.33881
-3.45401
-3.57161
-3.50681
-3.38921
-3.27401
-3.16121
-3.05082
-2.94282
-2.83722
-2.73402
-2.63322
-2.53482
-2.43882
-2.34522
-2.25402
-2.16522
-2.07883
-1.99483
-1.91323
-1.83403
-1.75723
-1.68283
-1.61084
-1.54124
-1.47404
-1.40924
-1.34684
-1.28684
-1.22925
-1.17405
-1.12125
-1.07085
-1.02285
-0.977255
-0.934056
-0.893258
-0.854859
-0.81886
-0.785262
-0.754063
-0.725264
-0.698865
-0.674866
-0.653267
-0.634067
-0.617268
-0.602868
-0.590869
-0.581269
-0.57407
-0.56927
-0.56687
-0.56687
-0.56927
-0.57407
-0.581269
-0.590869
-0.602868
-0.617268
-0.634067
-0.653267
-0.674866
-0.698865
-0.725264
-0.754063
-0.785262
-0.81886
-0.854859
-0.893258
-0.934056
-0.977255
-1.02285
-1.07085
-1.12125
-1.17405
-1.22925
-1.28684
-1.34684
-1.40924
-1.47404
-1.54124
-1.61084
-1.68283
-1.75723
-1.83403
-1.91323
-1.99483
-2.07883
-2.16522
-2.25402
-2.34522
-2.43882
-2.53482
-2.63322
-2.73402
-2.83722
-2.94282
-3.05082
-3.16121
-3.27401
-3.38921
-3.50681
-3.44442
-3.32682
-3.21162
-3.09882
-2.98842
-2.88042
-2.77482
-2.67162
-2.57082
-2.47242
-2.37642
-2.28282
-2.19162
-2.10283
-2.01643
-1.93243
-1.85083
-1.77163
-1.69483
-1.62044
-1.54844
-1.47884
-1.41164
-1.34684
-1.28444
-1.22445
-1.16685
-1.11165
-1.05885
-1.00845
-0.960455
-0.914856
-0.871658
-0.830859
-0.792461
-0.756462
-0.722863
-0.691664
-0.662865
-0.636466
-0.612467
-0.590868
-0.571669
-0.554869
-0.54047
-0.52847
-0.518871
-0.511671
-0.506871
-0.504471
-0.504471
-0.506871
-0.511671
-0.518871
-0.52847
-0.54047
-0.55487
-0.571669
-0.590868
-0.612467
-0.636466
-0.662865
-0.691664
-0.722863
-0.756462
-0.792461
-0.830859
-0.871658
-0.914856
-0.960455
-1.00845
-1.05885
-1.11165
-1.16685
-1.22445
-1.28444
-1.34684
-1.41164
-1.47884
-1.54844
-1.62044
-1.69483
-1.77163
-1.85083
-1.93243
-2.01643
-2.10283
-2.19162
-2.28282
-2.37642
-2.47242
-2.57082
-2.67162
-2.77482
-2.88042
-2.98842
-3.09882
-3.21162
-3.32682
-3.44442
-3.38442
-3.26682
-3.15162
-3.03882
-2.92842
-2.82042
-2.71482
-2.61162
-2.51082
-2.41242
-2.31642
-2.22282
-2.13163
-2.04283
-1.95643
-1.87243
-1.79083
-1.71163
-1.63484
-1.56044
-1.48844
-1.41884
-1.35164
-1.28684
-1.22445
-1.16445
-1.10685
-1.05165
-0.998853
-0.948455
-0.900457
-0.854858
-0.81166
-0.770861
-0.732462
-0.696464
-0.662865
-0.631666
-0.602867
-0.576468
-0.552469
-0.53087
-0.51167
-0.494871
-0.480472
-0.468472
-0.458872
-0.451673
-0.446873
-0.444473
-0.444473
-0.446873
-0.451673
-0.458872
-0.468472
-0.480472
-0.494871
-0.51167
-0.53087
-0.552469
-0.576468
-0.602867
-0.631666
-0.662865
-0.696464
-0.732462
-0.770861
-0.81166
-0.854858
-0.900457
-0.948455
-0.998853
-1.05165
-1.10685
-1.16445
-1.22445
-1.28684
-1.35164
-1.41884
-1.48844
-1.56044
-1.63484
-1.71163
-1.79083
-1.87243
-1.95643
-2.04283
-2.13163
-2.22282
-2.31642
-2.41242
-2.51082
-2.61162
-2.71482
-2.82042
-2.92842
-3.03882
-3.15162
-3.26682
-3.38442
-3.32682
-3.20922
-3.09402
-2.98122
-2.87082
-2.76282
-2.65722
-2.55402
-2.45322
-2.35482
-2.25883
-2.16523
-2.07403
-1.98523
-1.89883
-1.81483
-1.73323
-1.65404
-1.57724
-1.50284
-1.43084
-1.36124
-1.29404
-1.22925
-1.16685
-1.10685
-1.04925
-0.994053
-0.941255
-0.890857
-0.842858
-0.79726
-0.754061
-0.713263
-0.674864
-0.638865
-0.605267
-0.574068
-0.545269
-0.51887
-0.49487
-0.473271
-0.454072
-0.437273
-0.422873
-0.410873
-0.401274
-0.394074
-0.389274
-0.386874
-0.386874
-0.389274
-0.394074
-0.401274
-0.410873
-0.422873
-0.437273
-0.454072
-0.473271
-0.49487
-0.51887
-0.545269
-0.574068
-0.605267
-0.638865
-0.674864
-0.713263
-0.754061
-0.79726
-0.842858
-0.890857
-0.941255
-0.994053
-1.04925
-1.10685
-1.16685
-1.22925
-1.29404
-1.36124
-1.43084
-1.50284
-1.57724
-1.65404
-1.73323
-1.81483
-1.89883
-1.98523
-2.07403
-2.16523
-2.25883
-2.35482
-2.45322
-2.55402
-2.65722
-2.76282
-2.87082
-2.98122
-3.09402
-3.20922
-3.32682
-3.27162
-3.15402
-3.03882
-2.92602
-2.81562
-2.70762
-2.60202
-2.49882
-2.39802
-2.29963
-2.20363
-2.11003
-2.01883
-1.93003
-1.84363
-1.75963
-1.67804
-1.59884
-1.52204
-1.44764
-1.37564
-1.30604
-1.23885
-1.17405
-1.11165
-1.05165
-0.994053
-0.938855
-0.886057
-0.835658
-0.78766
-0.742062
-0.698863
-0.658064
-0.619666
-0.583667
-0.550068
-0.518869
-0.49007
-0.463671
-0.439672
-0.418073
-0.398873
-0.382074
-0.367674
-0.355675
-0.346075
-0.338875
-0.334076
-0.331676
-0.331676
-0.334076
-0.338875
-0.346075
-0.355675
-0.367674
-0.382074
-0.398873
-0.418073
-0.439672
-0.463671
-0.49007
-0.518869
-0.550068
-0.583667
-0.619666
-0.658064
-0.698863
-0.742062
-0.78766
-0.835658
-0.886057
-0.938855
-0.994053
-1.05165
-1.11165
-1.17405
-1.23885
-1.30604
-1.37564
-1.44764
-1.52204
-1.59884
-1.67804
-1.75963
-1.84363
-1.93003
-2.01883
-2.11003
-2.20363
-2.29963
-2.39802
-2.49882
-2.60202
-2.70762
-2.81562
-2.92602
-3.03882
-3.15402
-3.27162
-3.21882
-3.10122
-2.98602
-2.87322
-2.76282
-2.65482
-2.54922
-2.44603
-2.34523
-2.24683
-2.15083
-2.05723
-1.96603
-1.87723
-1.79083
-1.70684
-1.62524
-1.54604
-1.46924
-1.39484
-1.32284
-1.25325
-1.18605
-1.12125
-1.05885
-0.998853
-0.941255
-0.886057
-0.833258
-0.78286
-0.734862
-0.689263
-0.646065
-0.605266
-0.566867
-0.530868
-0.49727
-0.466071
-0.437272
-0.410873
-0.386873
-0.365274
-0.346075
-0.329275
-0.314876
-0.302876
-0.293276
-0.286077
-0.281277
-0.278877
-0.278877
-0.281277
-0.286077
-0.293276
-0.302876
-0.314876
-0.329275
-0.346075
-0.365274
-0.386873
-0.410873
-0.437272
-0.466071
-0.49727
-0.530868
-0.566867
-0.605266
-0.646065
-0.689263
-0.734862
-0.78286
-0.833258
-0.886057
-0.941255
-0.998853
-1.05885
-1.12125
-1.18605
-1.25325
-1.32284
-1.39484
-1.46924
-1.54604
-1.62524
-1.70684
-1.79083
-1.87723
-1.96603
-2.05723
-2.15083
-2.24683
-2.34523
-2.44603
-2.54922
-2.65482
-2.76282
-2.87322
-2.98602
-3.10122
-3.21882
-3.16842
-3.05082
-2.93562
-2.82282
-2.71242
-2.60443
-2.49883
-2.39563
-2.29483
-2.19643
-2.10043
-2.00683
-1.91563
-1.82683
-1.74044
-1.65644
-1.57484
-1.49564
-1.41884
-1.34444
-1.27245
-1.20285
-1.13565
-1.07085
-1.00845
-0.948455
-0.890857
-0.835658
-0.78286
-0.732462
-0.684463
-0.638865
-0.595666
-0.554867
-0.516469
-0.48047
-0.446871
-0.415672
-0.386873
-0.360474
-0.336475
-0.314875
-0.295676
-0.278877
-0.264477
-0.252477
-0.242878
-0.235678
-0.230878
-0.228478
-0.228478
-0.230878
-0.235678
-0.242878
-0.252477
-0.264477
-0.278877
-0.295676
-0.314875
-0.336475
-0.360474
-0.386873
-0.415672
-0.446871
-0.48047
-0.516469
-0.554867
-0.595666
-0.638865
-0.684463
-0.732462
-0.78286
-0.835658
-0.890857
-0.948455
-1.00845
-1.07085
-1.13565
-1.20285
-1.27245
-1.34444
-1.41884
-1.49564
-1.57484
-1.65644
-1.74044
-1.82683
-1.91563
-2.00683
-2.10043
-2.19643
-2.29483
-2.39563
-2.49883
-2.60443
-2.71242
-2.82282
-2.93562
-3.05082
-3.16842
-3.12042
-3.00282
-2.88763
-2.77483
-2.66443
-2.55643
-2.45083
-2.34763
-2.24683
-2.14843
-2.05243
-1.95883
-1.86763
-1.77884
-1.69244
-1.60844
-1.52684
-1.44764
-1.37084
-1.29645
-1.22445
-1.15485
-1.08765
-1.02285
-0.960455
-0.900457
-0.842858
-0.78766
-0.734862
-0.684463
-0.636465
-0.590866
-0.547668
-0.506869
-0.46847
-0.432471
-0.398872
-0.367673
-0.338874
-0.312475
-0.288476
-0.266877
-0.247677
-0.230878
-0.216478
-0.204479
-0.194879
-0.187679
-0.182879
-0.180479
-0.180479
-0.182879
-0.187679
-0.194879
-0.204479
-0.216478
-0.230878
-0.247677
-0.266877
-0.288476
-0.312475
-0.338874
-0.367673
-0.398872
-0.432471
-0.46847
-0.506869
-0.547668
-0.590866
-0.636465
-0.684463
-0.734862
-0.78766
-0.842858
-0.900457
-0.960455
-1.02285
-1.08765
-1.15485
-1.22445
-1.29645
-1.37084
-1.44764
-1.52684
-1.60844
-1.69244
-1.77884
-1.86763
-1.95883
-2.05243
-2.14843
-2.24683
-2.34763
-2.45083
-2.55643
-2.66443
-2.77483
-2.88763
-3.00282
-3.12042
-3.07483
-2.95723
-2.84203
-2.72923
-2.61883
-2.51083
-2.40523
-2.30203
-2.20123
-2.10283
-2.00683
-1.91323
-1.82204
-1.73324
-1.64684
-1.56284
-1.48124
-1.40204
-1.32525
-1.25085
-1.17885
-1.10925
-1.04205
-0.977255
-0.914856
-0.854858
-0.79726
-0.742062
-0.689263
-0.638865
-0.590866
-0.545268
-0.502069
-0.46127
-0.422871
-0.386873
-0.353274
-0.322075
-0.293276
-0.266876
-0.242877
-0.221278
-0.202078
-0.185279
-0.170879
-0.15888
-0.14928
-0.14208
-0.13728
-0.13488
-0.13488
-0.13728
-0.14208
-0.14928
-0.15888
-0.170879
-0.185279
-0.202078
-0.221278
-0.242877
-0.266876
-0.293276
-0.322075
-0.353274
-0.386873
-0.422871
-0.46127
-0.502069
-0.545268
-0.590866
-0.638865
-0.689263
-0.742062
-0.79726
-0.854858
-0.914856
-0.977255
-1.04205
-1.10925
-1.17885
-1.25085
-1.32525
-1.40204
-1.48124
-1.56284
-1.64684
-1.73324
-1.82204
-1.91323
-2.00683
-2.10283
-2.20123
-2.30203
-2.40523
-2.51083
-2.61883
-2.72923
-2.84203
-2.95723
-3.07483
-3.03163
-2.91403
-2.79883
-2.68603
-2.57563
-2.46763
-2.36203
-2.25883
-2.15803
-2.05963
-1.96363
-1.87004
-1.77884
-1.69004
-1.60364
-1.51964
-1.43804
-1.35885
-1.28205
-1.20765
-1.13565
-1.06605
-0.998854
-0.934056
-0.871658
-0.81166
-0.754061
-0.698863
-0.646065