/*--------------------------------*- C++ -*----------------------------------*\
| =========                 |                                                 |
| \\      /  F ield         | OpenFOAM: The Open Source CFD Toolbox           |
|  \\    /   O peration     | Version:  v1806                                 |
|   \\  /    A nd           | Web:      www.OpenFOAM.com                      |
|    \\/     M anipulation  |                                                 |
\*---------------------------------------------------------------------------*/
FoamFile
{
    version     2.0;
    format      ascii;
    class       volScalarField;
    location    "2";
    object      yd;
}
// * * * * * * * * * * * * * * * * * * * * * * * * * * * * * * * * * * * * * //

dimensions      [0 0 0 0 0 0 0];


internalField   nonuniform List<scalar> 
10000
(
-41.4527
-41.5703
-41.6855
-41.7983
-41.9087
-42.0167
-42.1223
-42.2255
-42.3263
-42.4247
-42.5207
-42.6143
-42.7055
-42.7943
-42.8807
-42.9647
-43.0463
-43.1255
-43.2023
-43.2767
-43.3487
-43.4183
-43.4855
-43.5503
-43.6127
-43.6727
-43.7303
-43.7855
-43.8383
-43.8887
-43.9367
-43.9823
-44.0255
-44.0663
-44.1047
-44.1407
-44.1743
-44.2055
-44.2343
-44.2607
-44.2847
-44.3063
-44.3255
-44.3423
-44.3567
-44.3687
-44.3783
-44.3855
-44.3903
-44.3927
-44.3927
-44.3903
-44.3855
-44.3783
-44.3687
-44.3567
-44.3423
-44.3255
-44.3063
-44.2847
-44.2607
-44.2343
-44.2055
-44.1743
-44.1407
-44.1047
-44.0663
-44.0255
-43.9823
-43.9367
-43.8887
-43.8383
-43.7855
-43.7303
-43.6727
-43.6127
-43.5503
-43.4855
-43.4183
-43.3487
-43.2767
-43.2023
-43.1255
-43.0463
-42.9647
-42.8807
-42.7943
-42.7055
-42.6143
-42.5207
-42.4247
-42.3263
-42.2255
-42.1223
-42.0167
-41.9087
-41.7983
-41.6855
-41.5703
-41.4527
-41.5703
-41.6879
-41.8031
-41.9159
-42.0263
-42.1343
-42.2399
-42.3431
-42.4439
-42.5423
-42.6383
-42.7319
-42.8231
-42.9119
-42.9983
-43.0823
-43.1639
-43.2431
-43.3199
-43.3943
-43.4663
-43.5359
-43.6031
-43.6679
-43.7303
-43.7903
-43.8479
-43.9031
-43.9559
-44.0063
-44.0543
-44.0999
-44.1431
-44.1839
-44.2223
-44.2583
-44.2919
-44.3231
-44.3519
-44.3783
-44.4023
-44.4239
-44.4431
-44.4599
-44.4743
-44.4863
-44.4959
-44.5031
-44.5079
-44.5103
-44.5103
-44.5079
-44.5031
-44.4959
-44.4863
-44.4743
-44.4599
-44.4431
-44.4239
-44.4023
-44.3783
-44.3519
-44.3231
-44.2919
-44.2583
-44.2223
-44.1839
-44.1431
-44.0999
-44.0543
-44.0063
-43.9559
-43.9031
-43.8479
-43.7903
-43.7303
-43.6679
-43.6031
-43.5359
-43.4663
-43.3943
-43.3199
-43.2431
-43.1639
-43.0823
-42.9983
-42.9119
-42.8231
-42.7319
-42.6383
-42.5423
-42.4439
-42.3431
-42.2399
-42.1343
-42.0263
-41.9159
-41.8031
-41.6879
-41.5703
-41.6855
-41.8031
-41.9183
-42.0311
-42.1415
-42.2495
-42.3551
-42.4583
-42.5591
-42.6575
-42.7535
-42.8471
-42.9383
-43.0271
-43.1135
-43.1975
-43.2791
-43.3583
-43.4351
-43.5095
-43.5815
-43.6511
-43.7183
-43.7831
-43.8455
-43.9055
-43.9631
-44.0183
-44.0711
-44.1215
-44.1695
-44.2151
-44.2583
-44.2991
-44.3375
-44.3735
-44.4071
-44.4383
-44.4671
-44.4935
-44.5175
-44.5391
-44.5583
-44.5751
-44.5895
-44.6015
-44.6111
-44.6183
-44.6231
-44.6255
-44.6255
-44.6231
-44.6183
-44.6111
-44.6015
-44.5895
-44.5751
-44.5583
-44.5391
-44.5175
-44.4935
-44.4671
-44.4383
-44.4071
-44.3735
-44.3375
-44.2991
-44.2583
-44.2151
-44.1695
-44.1215
-44.0711
-44.0183
-43.9631
-43.9055
-43.8455
-43.7831
-43.7183
-43.6511
-43.5815
-43.5095
-43.4351
-43.3583
-43.2791
-43.1975
-43.1135
-43.0271
-42.9383
-42.8471
-42.7535
-42.6575
-42.5591
-42.4583
-42.3551
-42.2495
-42.1415
-42.0311
-41.9183
-41.8031
-41.6855
-41.7983
-41.9159
-42.0311
-42.1439
-42.2543
-42.3623
-42.4679
-42.5711
-42.6719
-42.7703
-42.8663
-42.9599
-43.0511
-43.1399
-43.2263
-43.3103
-43.3919
-43.4711
-43.5479
-43.6223
-43.6943
-43.7639
-43.8311
-43.8959
-43.9583
-44.0183
-44.0759
-44.1311
-44.1839
-44.2343
-44.2823
-44.3279
-44.3711
-44.4119
-44.4503
-44.4863
-44.5199
-44.5511
-44.5799
-44.6063
-44.6303
-44.6519
-44.6711
-44.6879
-44.7023
-44.7143
-44.7239
-44.7311
-44.7359
-44.7383
-44.7383
-44.7359
-44.7311
-44.7239
-44.7143
-44.7023
-44.6879
-44.6711
-44.6519
-44.6303
-44.6063
-44.5799
-44.5511
-44.5199
-44.4863
-44.4503
-44.4119
-44.3711
-44.3279
-44.2823
-44.2343
-44.1839
-44.1311
-44.0759
-44.0183
-43.9583
-43.8959
-43.8311
-43.7639
-43.6943
-43.6223
-43.5479
-43.4711
-43.3919
-43.3103
-43.2263
-43.1399
-43.0511
-42.9599
-42.8663
-42.7703
-42.6719
-42.5711
-42.4679
-42.3623
-42.2543
-42.1439
-42.0311
-41.9159
-41.7983
-41.9087
-42.0263
-42.1415
-42.2543
-42.3647
-42.4727
-42.5783
-42.6815
-42.7823
-42.8807
-42.9767
-43.0703
-43.1615
-43.2503
-43.3367
-43.4207
-43.5023
-43.5815
-43.6583
-43.7327
-43.8047
-43.8743
-43.9415
-44.0063
-44.0687
-44.1287
-44.1863
-44.2415
-44.2943
-44.3447
-44.3927
-44.4383
-44.4815
-44.5223
-44.5607
-44.5967
-44.6303
-44.6615
-44.6903
-44.7167
-44.7407
-44.7623
-44.7815
-44.7983
-44.8127
-44.8247
-44.8343
-44.8415
-44.8463
-44.8487
-44.8487
-44.8463
-44.8415
-44.8343
-44.8247
-44.8127
-44.7983
-44.7815
-44.7623
-44.7407
-44.7167
-44.6903
-44.6615
-44.6303
-44.5967
-44.5607
-44.5223
-44.4815
-44.4383
-44.3927
-44.3447
-44.2943
-44.2415
-44.1863
-44.1287
-44.0687
-44.0063
-43.9415
-43.8743
-43.8047
-43.7327
-43.6583
-43.5815
-43.5023
-43.4207
-43.3367
-43.2503
-43.1615
-43.0703
-42.9767
-42.8807
-42.7823
-42.6815
-42.5783
-42.4727
-42.3647
-42.2543
-42.1415
-42.0263
-41.9087
-42.0167
-42.1343
-42.2495
-42.3623
-42.4727
-42.5807
-42.6863
-42.7895
-42.8903
-42.9887
-43.0847
-43.1783
-43.2695
-43.3583
-43.4447
-43.5287
-43.6103
-43.6895
-43.7663
-43.8407
-43.9127
-43.9823
-44.0495
-44.1143
-44.1767
-44.2367
-44.2943
-44.3495
-44.4023
-44.4527
-44.5007
-44.5463
-44.5895
-44.6303
-44.6687
-44.7047
-44.7383
-44.7695
-44.7983
-44.8247
-44.8487
-44.8703
-44.8895
-44.9063
-44.9207
-44.9327
-44.9423
-44.9495
-44.9543
-44.9567
-44.9567
-44.9543
-44.9495
-44.9423
-44.9327
-44.9207
-44.9063
-44.8895
-44.8703
-44.8487
-44.8247
-44.7983
-44.7695
-44.7383
-44.7047
-44.6687
-44.6303
-44.5895
-44.5463
-44.5007
-44.4527
-44.4023
-44.3495
-44.2943
-44.2367
-44.1767
-44.1143
-44.0495
-43.9823
-43.9127
-43.8407
-43.7663
-43.6895
-43.6103
-43.5287
-43.4447
-43.3583
-43.2695
-43.1783
-43.0847
-42.9887
-42.8903
-42.7895
-42.6863
-42.5807
-42.4727
-42.3623
-42.2495
-42.1343
-42.0167
-42.1223
-42.2399
-42.3551
-42.4679
-42.5783
-42.6863
-42.7919
-42.8951
-42.9959
-43.0943
-43.1903
-43.2839
-43.3751
-43.4639
-43.5503
-43.6343
-43.7159
-43.7951
-43.8719
-43.9463
-44.0183
-44.0879
-44.1551
-44.2199
-44.2823
-44.3423
-44.3999
-44.4551
-44.5079
-44.5583
-44.6063
-44.6519
-44.6951
-44.7359
-44.7743
-44.8103
-44.8439
-44.8751
-44.9039
-44.9303
-44.9543
-44.9759
-44.9951
-45.0119
-45.0263
-45.0383
-45.0479
-45.0551
-45.0599
-45.0623
-45.0623
-45.0599
-45.0551
-45.0479
-45.0383
-45.0263
-45.0119
-44.9951
-44.9759
-44.9543
-44.9303
-44.9039
-44.8751
-44.8439
-44.8103
-44.7743
-44.7359
-44.6951
-44.6519
-44.6063
-44.5583
-44.5079
-44.4551
-44.3999
-44.3423
-44.2823
-44.2199
-44.1551
-44.0879
-44.0183
-43.9463
-43.8719
-43.7951
-43.7159
-43.6343
-43.5503
-43.4639
-43.3751
-43.2839
-43.1903
-43.0943
-42.9959
-42.8951
-42.7919
-42.6863
-42.5783
-42.4679
-42.3551
-42.2399
-42.1223
-42.2255
-42.3431
-42.4583
-42.5711
-42.6815
-42.7895
-42.8951
-42.9983
-43.0991
-43.1975
-43.2935
-43.3871
-43.4783
-43.5671
-43.6535
-43.7375
-43.8191
-43.8983
-43.9751
-44.0495
-44.1215
-44.1911
-44.2583
-44.3231
-44.3855
-44.4455
-44.5031
-44.5583
-44.6111
-44.6615
-44.7095
-44.7551
-44.7983
-44.8391
-44.8775
-44.9135
-44.9471
-44.9783
-45.0071
-45.0335
-45.0575
-45.0791
-45.0983
-45.1151
-45.1295
-45.1415
-45.1511
-45.1583
-45.1631
-45.1655
-45.1655
-45.1631
-45.1583
-45.1511
-45.1415
-45.1295
-45.1151
-45.0983
-45.0791
-45.0575
-45.0335
-45.0071
-44.9783
-44.9471
-44.9135
-44.8775
-44.8391
-44.7983
-44.7551
-44.7095
-44.6615
-44.6111
-44.5583
-44.5031
-44.4455
-44.3855
-44.3231
-44.2583
-44.1911
-44.1215
-44.0495
-43.9751
-43.8983
-43.8191
-43.7375
-43.6535
-43.5671
-43.4783
-43.3871
-43.2935
-43.1975
-43.0991
-42.9983
-42.8951
-42.7895
-42.6815
-42.5711
-42.4583
-42.3431
-42.2255
-42.3263
-42.4439
-42.5591
-42.6719
-42.7823
-42.8903
-42.9959
-43.0991
-43.1999
-43.2983
-43.3943
-43.4879
-43.5791
-43.6679
-43.7543
-43.8383
-43.9199
-43.9991
-44.0759
-44.1503
-44.2223
-44.2919
-44.3591
-44.4239
-44.4863
-44.5463
-44.6039
-44.6591
-44.7119
-44.7623
-44.8103
-44.8559
-44.8991
-44.9399
-44.9783
-45.0143
-45.0479
-45.0791
-45.1079
-45.1343
-45.1583
-45.1799
-45.1991
-45.2159
-45.2303
-45.2423
-45.2519
-45.2591
-45.2639
-45.2663
-45.2663
-45.2639
-45.2591
-45.2519
-45.2423
-45.2303
-45.2159
-45.1991
-45.1799
-45.1583
-45.1343
-45.1079
-45.0791
-45.0479
-45.0143
-44.9783
-44.9399
-44.8991
-44.8559
-44.8103
-44.7623
-44.7119
-44.6591
-44.6039
-44.5463
-44.4863
-44.4239
-44.3591
-44.2919
-44.2223
-44.1503
-44.0759
-43.9991
-43.9199
-43.8383
-43.7543
-43.6679
-43.5791
-43.4879
-43.3943
-43.2983
-43.1999
-43.0991
-42.9959
-42.8903
-42.7823
-42.6719
-42.5591
-42.4439
-42.3263
-42.4247
-42.5423
-42.6575
-42.7703
-42.8807
-42.9887
-43.0943
-43.1975
-43.2983
-43.3967
-43.4927
-43.5863
-43.6775
-43.7663
-43.8527
-43.9367
-44.0183
-44.0975
-44.1743
-44.2487
-44.3207
-44.3903
-44.4575
-44.5223
-44.5847
-44.6447
-44.7023
-44.7575
-44.8103
-44.8607
-44.9087
-44.9543
-44.9975
-45.0383
-45.0767
-45.1127
-45.1463
-45.1775
-45.2063
-45.2327
-45.2567
-45.2783
-45.2975
-45.3143
-45.3287
-45.3407
-45.3503
-45.3575
-45.3623
-45.3647
-45.3647
-45.3623
-45.3575
-45.3503
-45.3407
-45.3287
-45.3143
-45.2975
-45.2783
-45.2567
-45.2327
-45.2063
-45.1775
-45.1463
-45.1127
-45.0767
-45.0383
-44.9975
-44.9543
-44.9087
-44.8607
-44.8103
-44.7575
-44.7023
-44.6447
-44.5847
-44.5223
-44.4575
-44.3903
-44.3207
-44.2487
-44.1743
-44.0975
-44.0183
-43.9367
-43.8527
-43.7663
-43.6775
-43.5863
-43.4927
-43.3967
-43.2983
-43.1975
-43.0943
-42.9887
-42.8807
-42.7703
-42.6575
-42.5423
-42.4247
-42.5207
-42.6383
-42.7535
-42.8663
-42.9767
-43.0847
-43.1903
-43.2935
-43.3943
-43.4927
-43.5887
-43.6823
-43.7735
-43.8623
-43.9487
-44.0327
-44.1143
-44.1935
-44.2703
-44.3447
-44.4167
-44.4863
-44.5535
-44.6183
-44.6807
-44.7407
-44.7983
-44.8535
-44.9063
-44.9567
-45.0047
-45.0503
-45.0935
-45.1343
-45.1727
-45.2087
-45.2423
-45.2735
-45.3023
-45.3287
-45.3527
-45.3743
-45.3935
-45.4103
-45.4247
-45.4367
-45.4463
-45.4535
-45.4583
-45.4607
-45.4607
-45.4583
-45.4535
-45.4463
-45.4367
-45.4247
-45.4103
-45.3935
-45.3743
-45.3527
-45.3287
-45.3023
-45.2735
-45.2423
-45.2087
-45.1727
-45.1343
-45.0935
-45.0503
-45.0047
-44.9567
-44.9063
-44.8535
-44.7983
-44.7407
-44.6807
-44.6183
-44.5535
-44.4863
-44.4167
-44.3447
-44.2703
-44.1935
-44.1143
-44.0327
-43.9487
-43.8623
-43.7735
-43.6823
-43.5887
-43.4927
-43.3943
-43.2935
-43.1903
-43.0847
-42.9767
-42.8663
-42.7535
-42.6383
-42.5207
-42.6143
-42.7319
-42.8471
-42.9599
-43.0703
-43.1783
-43.2839
-43.3871
-43.4879
-43.5863
-43.6823
-43.7759
-43.8671
-43.9559
-44.0423
-44.1263
-44.2079
-44.2871
-44.3639
-44.4383
-44.5103
-44.5799
-44.6471
-44.7119
-44.7743
-44.8343
-44.8919
-44.9471
-44.9999
-45.0503
-45.0983
-45.1439
-45.1871
-45.2279
-45.2663
-45.3023
-45.3359
-45.3671
-45.3959
-45.4223
-45.4463
-45.4679
-45.4871
-45.5039
-45.5183
-45.5303
-45.5399
-45.5471
-45.5519
-45.5543
-45.5543
-45.5519
-45.5471
-45.5399
-45.5303
-45.5183
-45.5039
-45.4871
-45.4679
-45.4463
-45.4223
-45.3959
-45.3671
-45.3359
-45.3023
-45.2663
-45.2279
-45.1871
-45.1439
-45.0983
-45.0503
-44.9999
-44.9471
-44.8919
-44.8343
-44.7743
-44.7119
-44.6471
-44.5799
-44.5103
-44.4383
-44.3639
-44.2871
-44.2079
-44.1263
-44.0423
-43.9559
-43.8671
-43.7759
-43.6823
-43.5863
-43.4879
-43.3871
-43.2839
-43.1783
-43.0703
-42.9599
-42.8471
-42.7319
-42.6143
-42.7055
-42.8231
-42.9383
-43.0511
-43.1615
-43.2695
-43.3751
-43.4783
-43.5791
-43.6775
-43.7735
-43.8671
-43.9583
-44.0471
-44.1335
-44.2175
-44.2991
-44.3783
-44.4551
-44.5295
-44.6015
-44.6711
-44.7383
-44.8031
-44.8655
-44.9255
-44.9831
-45.0383
-45.0911
-45.1415
-45.1895
-45.2351
-45.2783
-45.3191
-45.3575
-45.3935
-45.4271
-45.4583
-45.4871
-45.5135
-45.5375
-45.5591
-45.5783
-45.5951
-45.6095
-45.6215
-45.6311
-45.6383
-45.6431
-45.6455
-45.6455
-45.6431
-45.6383
-45.6311
-45.6215
-45.6095
-45.5951
-45.5783
-45.5591
-45.5375
-45.5135
-45.4871
-45.4583
-45.4271
-45.3935
-45.3575
-45.3191
-45.2783
-45.2351
-45.1895
-45.1415
-45.0911
-45.0383
-44.9831
-44.9255
-44.8655
-44.8031
-44.7383
-44.6711
-44.6015
-44.5295
-44.4551
-44.3783
-44.2991
-44.2175
-44.1335
-44.0471
-43.9583
-43.8671
-43.7735
-43.6775
-43.5791
-43.4783
-43.3751
-43.2695
-43.1615
-43.0511
-42.9383
-42.8231
-42.7055
-42.7943
-42.9119
-43.0271
-43.1399
-43.2503
-43.3583
-43.4639
-43.5671
-43.6679
-43.7663
-43.8623
-43.9559
-44.0471
-44.1359
-44.2223
-44.3063
-44.3879
-44.4671
-44.5439
-44.6183
-44.6903
-44.7599
-44.8271
-44.8919
-44.9543
-45.0143
-45.0719
-45.1271
-45.1799
-45.2303
-45.2783
-45.3239
-45.3671
-45.4079
-45.4463
-45.4823
-45.5159
-45.5471
-45.5759
-45.6023
-45.6263
-45.6479
-45.6671
-45.6839
-45.6983
-45.7103
-45.7199
-45.7271
-45.7319
-45.7343
-45.7343
-45.7319
-45.7271
-45.7199
-45.7103
-45.6983
-45.6839
-45.6671
-45.6479
-45.6263
-45.6023
-45.5759
-45.5471
-45.5159
-45.4823
-45.4463
-45.4079
-45.3671
-45.3239
-45.2783
-45.2303
-45.1799
-45.1271
-45.0719
-45.0143
-44.9543
-44.8919
-44.8271
-44.7599
-44.6903
-44.6183
-44.5439
-44.4671
-44.3879
-44.3063
-44.2223
-44.1359
-44.0471
-43.9559
-43.8623
-43.7663
-43.6679
-43.5671
-43.4639
-43.3583
-43.2503
-43.1399
-43.0271
-42.9119
-42.7943
-42.8807
-42.9983
-43.1135
-43.2263
-43.3367
-43.4447
-43.5503
-43.6535
-43.7543
-43.8527
-43.9487
-44.0423
-44.1335
-44.2223
-44.3087
-44.3927
-44.4743
-44.5535
-44.6303
-44.7047
-44.7767
-44.8463
-44.9135
-44.9783
-45.0407
-45.1007
-45.1583
-45.2135
-45.2663
-45.3167
-45.3647
-45.4103
-45.4535
-45.4943
-45.5327
-45.5687
-45.6023
-45.6335
-45.6623
-45.6887
-45.7127
-45.7343
-45.7535
-45.7703
-45.7847
-45.7967
-45.8063
-45.8135
-45.8183
-45.8207
-45.8207
-45.8183
-45.8135
-45.8063
-45.7967
-45.7847
-45.7703
-45.7535
-45.7343
-45.7127
-45.6887
-45.6623
-45.6335
-45.6023
-45.5687
-45.5327
-45.4943
-45.4535
-45.4103
-45.3647
-45.3167
-45.2663
-45.2135
-45.1583
-45.1007
-45.0407
-44.9783
-44.9135
-44.8463
-44.7767
-44.7047
-44.6303
-44.5535
-44.4743
-44.3927
-44.3087
-44.2223
-44.1335
-44.0423
-43.9487
-43.8527
-43.7543
-43.6535
-43.5503
-43.4447
-43.3367
-43.2263
-43.1135
-42.9983
-42.8807
-42.9647
-43.0823
-43.1975
-43.3103
-43.4207
-43.5287
-43.6343
-43.7375
-43.8383
-43.9367
-44.0327
-44.1263
-44.2175
-44.3063
-44.3927
-44.4767
-44.5583
-44.6375
-44.7143
-44.7887
-44.8607
-44.9303
-44.9975
-45.0623
-45.1247
-45.1847
-45.2423
-45.2975
-45.3503
-45.4007
-45.4487
-45.4943
-45.5375
-45.5783
-45.6167
-45.6527
-45.6863
-45.7175
-45.7463
-45.7727
-45.7967
-45.8183
-45.8375
-45.8543
-45.8687
-45.8807
-45.8903
-45.8975
-45.9023
-45.9047
-45.9047
-45.9023
-45.8975
-45.8903
-45.8807
-45.8687
-45.8543
-45.8375
-45.8183
-45.7967
-45.7727
-45.7463
-45.7175
-45.6863
-45.6527
-45.6167
-45.5783
-45.5375
-45.4943
-45.4487
-45.4007
-45.3503
-45.2975
-45.2423
-45.1847
-45.1247
-45.0623
-44.9975
-44.9303
-44.8607
-44.7887
-44.7143
-44.6375
-44.5583
-44.4767
-44.3927
-44.3063
-44.2175
-44.1263
-44.0327
-43.9367
-43.8383
-43.7375
-43.6343
-43.5287
-43.4207
-43.3103
-43.1975
-43.0823
-42.9647
-43.0463
-43.1639
-43.2791
-43.3919
-43.5023
-43.6103
-43.7159
-43.8191
-43.9199
-44.0183
-44.1143
-44.2079
-44.2991
-44.3879
-44.4743
-44.5583
-44.6399
-44.7191
-44.7959
-44.8703
-44.9423
-45.0119
-45.0791
-45.1439
-45.2063
-45.2663
-45.3239
-45.3791
-45.4319
-45.4823
-45.5303
-45.5759
-45.6191
-45.6599
-45.6983
-45.7343
-45.7679
-45.7991
-45.8279
-45.8543
-45.8783
-45.8999
-45.9191
-45.9359
-45.9503
-45.9623
-45.9719
-45.9791
-45.9839
-45.9863
-45.9863
-45.9839
-45.9791
-45.9719
-45.9623
-45.9503
-45.9359
-45.9191
-45.8999
-45.8783
-45.8543
-45.8279
-45.7991
-45.7679
-45.7343
-45.6983
-45.6599
-45.6191
-45.5759
-45.5303
-45.4823
-45.4319
-45.3791
-45.3239
-45.2663
-45.2063
-45.1439
-45.0791
-45.0119
-44.9423
-44.8703
-44.7959
-44.7191
-44.6399
-44.5583
-44.4743
-44.3879
-44.2991
-44.2079
-44.1143
-44.0183
-43.9199
-43.8191
-43.7159
-43.6103
-43.5023
-43.3919
-43.2791
-43.1639
-43.0463
-43.1255
-43.2431
-43.3583
-43.4711
-43.5815
-43.6895
-43.7951
-43.8983
-43.9991
-44.0975
-44.1935
-44.2871
-44.3783
-44.4671
-44.5535
-44.6375
-44.7191
-44.7983
-44.8751
-44.9495
-45.0215
-45.0911
-45.1583
-45.2231
-45.2855
-45.3455
-45.4031
-45.4583
-45.5111
-45.5615
-45.6095
-45.6551
-45.6983
-45.7391
-45.7775
-45.8135
-45.8471
-45.8783
-45.9071
-45.9335
-45.9575
-45.9791
-45.9983
-46.0151
-46.0295
-46.0415
-46.0511
-46.0583
-46.0631
-46.0655
-46.0655
-46.0631
-46.0583
-46.0511
-46.0415
-46.0295
-46.0151
-45.9983
-45.9791
-45.9575
-45.9335
-45.9071
-45.8783
-45.8471
-45.8135
-45.7775
-45.7391
-45.6983
-45.6551
-45.6095
-45.5615
-45.5111
-45.4583
-45.4031
-45.3455
-45.2855
-45.2231
-45.1583
-45.0911
-45.0215
-44.9495
-44.8751
-44.7983
-44.7191
-44.6375
-44.5535
-44.4671
-44.3783
-44.2871
-44.1935
-44.0975
-43.9991
-43.8983
-43.7951
-43.6895
-43.5815
-43.4711
-43.3583
-43.2431
-43.1255
-43.2023
-43.3199
-43.4351
-43.5479
-43.6583
-43.7663
-43.8719
-43.9751
-44.0759
-44.1743
-44.2703
-44.3639
-44.4551
-44.5439
-44.6303
-44.7143
-44.7959
-44.8751
-44.9519
-45.0263
-45.0983
-45.1679
-45.2351
-45.2999
-45.3623
-45.4223
-45.4799
-45.5351
-45.5879
-45.6383
-45.6863
-45.7319
-45.7751
-45.8159
-45.8543
-45.8903
-45.9239
-45.9551
-45.9839
-46.0103
-46.0343
-46.0559
-46.0751
-46.0919
-46.1063
-46.1183
-46.1279
-46.1351
-46.1399
-46.1423
-46.1423
-46.1399
-46.1351
-46.1279
-46.1183
-46.1063
-46.0919
-46.0751
-46.0559
-46.0343
-46.0103
-45.9839
-45.9551
-45.9239
-45.8903
-45.8543
-45.8159
-45.7751
-45.7319
-45.6863
-45.6383
-45.5879
-45.5351
-45.4799
-45.4223
-45.3623
-45.2999
-45.2351
-45.1679
-45.0983
-45.0263
-44.9519
-44.8751
-44.7959
-44.7143
-44.6303
-44.5439
-44.4551
-44.3639
-44.2703
-44.1743
-44.0759
-43.9751
-43.8719
-43.7663
-43.6583
-43.5479
-43.4351
-43.3199
-43.2023
-43.2767
-43.3943
-43.5095
-43.6223
-43.7327
-43.8407
-43.9463
-44.0495
-44.1503
-44.2487
-44.3447
-44.4383
-44.5295
-44.6183
-44.7047
-44.7887
-44.8703
-44.9495
-45.0263
-45.1007
-45.1727
-45.2423
-45.3095
-45.3743
-45.4367
-45.4967
-45.5543
-45.6095
-45.6623
-45.7127
-45.7607
-45.8063
-45.8495
-45.8903
-45.9287
-45.9647
-45.9983
-46.0295
-46.0583
-46.0847
-46.1087
-46.1303
-46.1495
-46.1663
-46.1807
-46.1927
-46.2023
-46.2095
-46.2143
-46.2167
-46.2167
-46.2143
-46.2095
-46.2023
-46.1927
-46.1807
-46.1663
-46.1495
-46.1303
-46.1087
-46.0847
-46.0583
-46.0295
-45.9983
-45.9647
-45.9287
-45.8903
-45.8495
-45.8063
-45.7607
-45.7127
-45.6623
-45.6095
-45.5543
-45.4967
-45.4367
-45.3743
-45.3095
-45.2423
-45.1727
-45.1007
-45.0263
-44.9495
-44.8703
-44.7887
-44.7047
-44.6183
-44.5295
-44.4383
-44.3447
-44.2487
-44.1503
-44.0495
-43.9463
-43.8407
-43.7327
-43.6223
-43.5095
-43.3943
-43.2767
-43.3487
-43.4663
-43.5815
-43.6943
-43.8047
-43.9127
-44.0183
-44.1215
-44.2223
-44.3207
-44.4167
-44.5103
-44.6015
-44.6903
-44.7767
-44.8607
-44.9423
-45.0215
-45.0983
-45.1727
-45.2447
-45.3143
-45.3815
-45.4463
-45.5087
-45.5687
-45.6263
-45.6815
-45.7343
-45.7847
-45.8327
-45.8783
-45.9215
-45.9623
-46.0007
-46.0367
-46.0703
-46.1015
-46.1303
-46.1567
-46.1807
-46.2023
-46.2215
-46.2383
-46.2527
-46.2647
-46.2743
-46.2815
-46.2863
-46.2887
-46.2887
-46.2863
-46.2815
-46.2743
-46.2647
-46.2527
-46.2383
-46.2215
-46.2023
-46.1807
-46.1567
-46.1303
-46.1015
-46.0703
-46.0367
-46.0007
-45.9623
-45.9215
-45.8783
-45.8327
-45.7847
-45.7343
-45.6815
-45.6263
-45.5687
-45.5087
-45.4463
-45.3815
-45.3143
-45.2447
-45.1727
-45.0983
-45.0215
-44.9423
-44.8607
-44.7767
-44.6903
-44.6015
-44.5103
-44.4167
-44.3207
-44.2223
-44.1215
-44.0183
-43.9127
-43.8047
-43.6943
-43.5815
-43.4663
-43.3487
-43.4183
-43.5359
-43.6511
-43.7639
-43.8743
-43.9823
-44.0879
-44.1911
-44.2919
-44.3903
-44.4863
-44.5799
-44.6711
-44.7599
-44.8463
-44.9303
-45.0119
-45.0911
-45.1679
-45.2423
-45.3143
-45.3839
-45.4511
-45.5159
-45.5783
-45.6383
-45.6959
-45.7511
-45.8039
-45.8543
-45.9023
-45.9479
-45.9911
-46.0319
-46.0703
-46.1063
-46.1399
-46.1711
-46.1999
-46.2263
-46.2503
-46.2719
-46.2911
-46.3079
-46.3223
-46.3343
-46.3439
-46.3511
-46.3559
-46.3583
-46.3583
-46.3559
-46.3511
-46.3439
-46.3343
-46.3223
-46.3079
-46.2911
-46.2719
-46.2503
-46.2263
-46.1999
-46.1711
-46.1399
-46.1063
-46.0703
-46.0319
-45.9911
-45.9479
-45.9023
-45.8543
-45.8039
-45.7511
-45.6959
-45.6383
-45.5783
-45.5159
-45.4511
-45.3839
-45.3143
-45.2423
-45.1679
-45.0911
-45.0119
-44.9303
-44.8463
-44.7599
-44.6711
-44.5799
-44.4863
-44.3903
-44.2919
-44.1911
-44.0879
-43.9823
-43.8743
-43.7639
-43.6511
-43.5359
-43.4183
-43.4855
-43.6031
-43.7183
-43.8311
-43.9415
-44.0495
-44.1551
-44.2583
-44.3591
-44.4575
-44.5535
-44.6471
-44.7383
-44.8271
-44.9135
-44.9975
-45.0791
-45.1583
-45.2351
-45.3095
-45.3815
-45.4511
-45.5183
-45.5831
-45.6455
-45.7055
-45.7631
-45.8183
-45.8711
-45.9215
-45.9695
-46.0151
-46.0583
-46.0991
-46.1375
-46.1735
-46.2071
-46.2383
-46.2671
-46.2935
-46.3175
-46.3391
-46.3583
-46.3751
-46.3895
-46.4015
-46.4111
-46.4183
-46.4231
-46.4255
-46.4255
-46.4231
-46.4183
-46.4111
-46.4015
-46.3895
-46.3751
-46.3583
-46.3391
-46.3175
-46.2935
-46.2671
-46.2383
-46.2071
-46.1735
-46.1375
-46.0991
-46.0583
-46.0151
-45.9695
-45.9215
-45.8711
-45.8183
-45.7631
-45.7055
-45.6455
-45.5831
-45.5183
-45.4511
-45.3815
-45.3095
-45.2351
-45.1583
-45.0791
-44.9975
-44.9135
-44.8271
-44.7383
-44.6471
-44.5535
-44.4575
-44.3591
-44.2583
-44.1551
-44.0495
-43.9415
-43.8311
-43.7183
-43.6031
-43.4855
-43.5503
-43.6679
-43.7831
-43.8959
-44.0063
-44.1143
-44.2199
-44.3231
-44.4239
-44.5223
-44.6183
-44.7119
-44.8031
-44.8919
-44.9783
-45.0623
-45.1439
-45.2231
-45.2999
-45.3743
-45.4463
-45.5159
-45.5831
-45.6479
-45.7103
-45.7703
-45.8279
-45.8831
-45.9359
-45.9863
-46.0343
-46.0799
-46.1231
-46.1639
-46.2023
-46.2383
-46.2719
-46.3031
-46.3319
-46.3583
-46.3823
-46.4039
-46.4231
-46.4399
-46.4543
-46.4663
-46.4759
-46.4831
-46.4879
-46.4903
-46.4903
-46.4879
-46.4831
-46.4759
-46.4663
-46.4543
-46.4399
-46.4231
-46.4039
-46.3823
-46.3583
-46.3319
-46.3031
-46.2719
-46.2383
-46.2023
-46.1639
-46.1231
-46.0799
-46.0343
-45.9863
-45.9359
-45.8831
-45.8279
-45.7703
-45.7103
-45.6479
-45.5831
-45.5159
-45.4463
-45.3743
-45.2999
-45.2231
-45.1439
-45.0623
-44.9783
-44.8919
-44.8031
-44.7119
-44.6183
-44.5223
-44.4239
-44.3231
-44.2199
-44.1143
-44.0063
-43.8959
-43.7831
-43.6679
-43.5503
-43.6127
-43.7303
-43.8455
-43.9583
-44.0687
-44.1767
-44.2823
-44.3855
-44.4863
-44.5847
-44.6807
-44.7743
-44.8655
-44.9543
-45.0407
-45.1247
-45.2063
-45.2855
-45.3623
-45.4367
-45.5087
-45.5783
-45.6455
-45.7103
-45.7727
-45.8327
-45.8903
-45.9455
-45.9983
-46.0487
-46.0967
-46.1423
-46.1855
-46.2263
-46.2647
-46.3007
-46.3343
-46.3655
-46.3943
-46.4207
-46.4447
-46.4663
-46.4855
-46.5023
-46.5167
-46.5287
-46.5383
-46.5455
-46.5503
-46.5527
-46.5527
-46.5503
-46.5455
-46.5383
-46.5287
-46.5167
-46.5023
-46.4855
-46.4663
-46.4447
-46.4207
-46.3943
-46.3655
-46.3343
-46.3007
-46.2647
-46.2263
-46.1855
-46.1423
-46.0967
-46.0487
-45.9983
-45.9455
-45.8903
-45.8327
-45.7727
-45.7103
-45.6455
-45.5783
-45.5087
-45.4367
-45.3623
-45.2855
-45.2063
-45.1247
-45.0407
-44.9543
-44.8655
-44.7743
-44.6807
-44.5847
-44.4863
-44.3855
-44.2823
-44.1767
-44.0687
-43.9583
-43.8455
-43.7303
-43.6127
-43.6727
-43.7903
-43.9055
-44.0183
-44.1287
-44.2367
-44.3423
-44.4455
-44.5463
-44.6447
-44.7407
-44.8343
-44.9255
-45.0143
-45.1007
-45.1847
-45.2663
-45.3455
-45.4223
-45.4967
-45.5687
-45.6383
-45.7055
-45.7703
-45.8327
-45.8927
-45.9503
-46.0055
-46.0583
-46.1087
-46.1567
-46.2023
-46.2455
-46.2863
-46.3247
-46.3607
-46.3943
-46.4255
-46.4543
-46.4807
-46.5047
-46.5263
-46.5455
-46.5623
-46.5767
-46.5887
-46.5983
-46.6055
-46.6103
-46.6127
-46.6127
-46.6103
-46.6055
-46.5983
-46.5887
-46.5767
-46.5623
-46.5455
-46.5263
-46.5047
-46.4807
-46.4543
-46.4255
-46.3943
-46.3607
-46.3247
-46.2863
-46.2455
-46.2023
-46.1567
-46.1087
-46.0583
-46.0055
-45.9503
-45.8927
-45.8327
-45.7703
-45.7055
-45.6383
-45.5687
-45.4967
-45.4223
-45.3455
-45.2663
-45.1847
-45.1007
-45.0143
-44.9255
-44.8343
-44.7407
-44.6447
-44.5463
-44.4455
-44.3423
-44.2367
-44.1287
-44.0183
-43.9055
-43.7903
-43.6727
-43.7303
-43.8479
-43.9631
-44.0759
-44.1863
-44.2943
-44.3999
-44.5031
-44.6039
-44.7023
-44.7983
-44.8919
-44.9831
-45.0719
-45.1583
-45.2423
-45.3239
-45.4031
-45.4799
-45.5543
-45.6263
-45.6959
-45.7631
-45.8279
-45.8903
-45.9503
-46.0079
-46.0631
-46.1159
-46.1663
-46.2143
-46.2599
-46.3031
-46.3439
-46.3823
-46.4183
-46.4519
-46.4831
-46.5119
-46.5383
-46.5623
-46.5839
-46.6031
-46.6199
-46.6343
-46.6463
-46.6559
-46.6631
-46.6679
-46.6703
-46.6703
-46.6679
-46.6631
-46.6559
-46.6463
-46.6343
-46.6199
-46.6031
-46.5839
-46.5623
-46.5383
-46.5119
-46.4831
-46.4519
-46.4183
-46.3823
-46.3439
-46.3031
-46.2599
-46.2143
-46.1663
-46.1159
-46.0631
-46.0079
-45.9503
-45.8903
-45.8279
-45.7631
-45.6959
-45.6263
-45.5543
-45.4799
-45.4031
-45.3239
-45.2423
-45.1583
-45.0719
-44.9831
-44.8919
-44.7983
-44.7023
-44.6039
-44.5031
-44.3999
-44.2943
-44.1863
-44.0759
-43.9631
-43.8479
-43.7303
-43.7855
-43.9031
-44.0183
-44.1311
-44.2415
-44.3495
-44.4551
-44.5583
-44.6591
-44.7575
-44.8535
-44.9471
-45.0383
-45.1271
-45.2135
-45.2975
-45.3791
-45.4583
-45.5351
-45.6095
-45.6815
-45.7511
-45.8183
-45.8831
-45.9455
-46.0055
-46.0631
-46.1183
-46.1711
-46.2215
-46.2695
-46.3151
-46.3583
-46.3991
-46.4375
-46.4735
-46.5071
-46.5383
-46.5671
-46.5935
-46.6175
-46.6391
-46.6583
-46.6751
-46.6895
-46.7015
-46.7111
-46.7183
-46.7231
-46.7255
-46.7255
-46.7231
-46.7183
-46.7111
-46.7015
-46.6895
-46.6751
-46.6583
-46.6391
-46.6175
-46.5935
-46.5671
-46.5383
-46.5071
-46.4735
-46.4375
-46.3991
-46.3583
-46.3151
-46.2695
-46.2215
-46.1711
-46.1183
-46.0631
-46.0055
-45.9455
-45.8831
-45.8183
-45.7511
-45.6815
-45.6095
-45.5351
-45.4583
-45.3791
-45.2975
-45.2135
-45.1271
-45.0383
-44.9471
-44.8535
-44.7575
-44.6591
-44.5583
-44.4551
-44.3495
-44.2415
-44.1311
-44.0183
-43.9031
-43.7855
-43.8383
-43.9559
-44.0711
-44.1839
-44.2943
-44.4023
-44.5079
-44.6111
-44.7119
-44.8103
-44.9063
-44.9999
-45.0911
-45.1799
-45.2663
-45.3503
-45.4319
-45.5111
-45.5879
-45.6623
-45.7343
-45.8039
-45.8711
-45.9359
-45.9983
-46.0583
-46.1159
-46.1711
-46.2239
-46.2743
-46.3223
-46.3679
-46.4111
-46.4519
-46.4903
-46.5263
-46.5599
-46.5911
-46.6199
-46.6463
-46.6703
-46.6919
-46.7111
-46.7279
-46.7423
-46.7543
-46.7639
-46.7711
-46.7759
-46.7783
-46.7783
-46.7759
-46.7711
-46.7639
-46.7543
-46.7423
-46.7279
-46.7111
-46.6919
-46.6703
-46.6463
-46.6199
-46.5911
-46.5599
-46.5263
-46.4903
-46.4519
-46.4111
-46.3679
-46.3223
-46.2743
-46.2239
-46.1711
-46.1159
-46.0583
-45.9983
-45.9359
-45.8711
-45.8039
-45.7343
-45.6623
-45.5879
-45.5111
-45.4319
-45.3503
-45.2663
-45.1799
-45.0911
-44.9999
-44.9063
-44.8103
-44.7119
-44.6111
-44.5079
-44.4023
-44.2943
-44.1839
-44.0711
-43.9559
-43.8383
-43.8887
-44.0063
-44.1215
-44.2343
-44.3447
-44.4527
-44.5583
-44.6615
-44.7623
-44.8607
-44.9567
-45.0503
-45.1415
-45.2303
-45.3167
-45.4007
-45.4823
-45.5615
-45.6383
-45.7127
-45.7847
-45.8543
-45.9215
-45.9863
-46.0487
-46.1087
-46.1663
-46.2215
-46.2743
-46.3247
-46.3727
-46.4183
-46.4615
-46.5023
-46.5407
-46.5767
-46.6103
-46.6415
-46.6703
-46.6967
-46.7207
-46.7423
-46.7615
-46.7783
-46.7927
-46.8047
-46.8143
-46.8215
-46.8263
-46.8287
-46.8287
-46.8263
-46.8215
-46.8143
-46.8047
-46.7927
-46.7783
-46.7615
-46.7423
-46.7207
-46.6967
-46.6703
-46.6415
-46.6103
-46.5767
-46.5407
-46.5023
-46.4615
-46.4183
-46.3727
-46.3247
-46.2743
-46.2215
-46.1663
-46.1087
-46.0487
-45.9863
-45.9215
-45.8543
-45.7847
-45.7127
-45.6383
-45.5615
-45.4823
-45.4007
-45.3167
-45.2303
-45.1415
-45.0503
-44.9567
-44.8607
-44.7623
-44.6615
-44.5583
-44.4527
-44.3447
-44.2343
-44.1215
-44.0063
-43.8887
-43.9367
-44.0543
-44.1695
-44.2823
-44.3927
-44.5007
-44.6063
-44.7095
-44.8103
-44.9087
-45.0047
-45.0983
-45.1895
-45.2783
-45.3647
-45.4487
-45.5303
-45.6095
-45.6863
-45.7607
-45.8327
-45.9023
-45.9695
-46.0343
-46.0967
-46.1567
-46.2143
-46.2695
-46.3223
-46.3727
-46.4207
-46.4663
-46.5095
-46.5503
-46.5887
-46.6247
-46.6583
-46.6895
-46.7183
-46.7447
-46.7687
-46.7903
-46.8095
-46.8263
-46.8407
-46.8527
-46.8623
-46.8695
-46.8743
-46.8767
-46.8767
-46.8743
-46.8695
-46.8623
-46.8527
-46.8407
-46.8263
-46.8095
-46.7903
-46.7687
-46.7447
-46.7183
-46.6895
-46.6583
-46.6247
-46.5887
-46.5503
-46.5095
-46.4663
-46.4207
-46.3727
-46.3223
-46.2695
-46.2143
-46.1567
-46.0967
-46.0343
-45.9695
-45.9023
-45.8327
-45.7607
-45.6863
-45.6095
-45.5303
-45.4487
-45.3647
-45.2783
-45.1895
-45.0983
-45.0047
-44.9087
-44.8103
-44.7095
-44.6063
-44.5007
-44.3927
-44.2823
-44.1695
-44.0543
-43.9367
-43.9823
-44.0999
-44.2151
-44.3279
-44.4383
-44.5463
-44.6519
-44.7551
-44.8559
-44.9543
-45.0503
-45.1439
-45.2351
-45.3239
-45.4103
-45.4943
-45.5759
-45.6551
-45.7319
-45.8063
-45.8783
-45.9479
-46.0151
-46.0799
-46.1423
-46.2023
-46.2599
-46.3151
-46.3679
-46.4183
-46.4663
-46.5119
-46.5551
-46.5959
-46.6343
-46.6703
-46.7039
-46.7351
-46.7639
-46.7903
-46.8143
-46.8359
-46.8551
-46.8719
-46.8863
-46.8983
-46.9079
-46.9151
-46.9199
-46.9223
-46.9223
-46.9199
-46.9151
-46.9079
-46.8983
-46.8863
-46.8719
-46.8551
-46.8359
-46.8143
-46.7903
-46.7639
-46.7351
-46.7039
-46.6703
-46.6343
-46.5959
-46.5551
-46.5119
-46.4663
-46.4183
-46.3679
-46.3151
-46.2599
-46.2023
-46.1423
-46.0799
-46.0151
-45.9479
-45.8783
-45.8063
-45.7319
-45.6551
-45.5759
-45.4943
-45.4103
-45.3239
-45.2351
-45.1439
-45.0503
-44.9543
-44.8559
-44.7551
-44.6519
-44.5463
-44.4383
-44.3279
-44.2151
-44.0999
-43.9823
-44.0255
-44.1431
-44.2583
-44.3711
-44.4815
-44.5895
-44.6951
-44.7983
-44.8991
-44.9975
-45.0935
-45.1871
-45.2783
-45.3671
-45.4535
-45.5375
-45.6191
-45.6983
-45.7751
-45.8495
-45.9215
-45.9911
-46.0583
-46.1231
-46.1855
-46.2455
-46.3031
-46.3583
-46.4111
-46.4615
-46.5095
-46.5551
-46.5983
-46.6391
-46.6775
-46.7135
-46.7471
-46.7783