/*--------------------------------*- C++ -*----------------------------------*\
| =========                 |                                                 |
| \\      /  F ield         | OpenFOAM: The Open Source CFD Toolbox           |
|  \\    /   O peration     | Version:  v1806                                 |
|   \\  /    A nd           | Web:      www.OpenFOAM.com                      |
|    \\/     M anipulation  |                                                 |
\*---------------------------------------------------------------------------*/
FoamFile
{
    version     2.0;
    format      ascii;
    class       volScalarField;
    location    "1";
    object      p;
}
// * * * * * * * * * * * * * * * * * * * * * * * * * * * * * * * * * * * * * //

dimensions      [0 0 0 0 0 0 0];


internalField   nonuniform List<scalar> 
10000
(
-5.32943
-5.21183
-5.09663
-4.98383
-4.87343
-4.76542
-4.65982
-4.55662
-4.45581
-4.35741
-4.26141
-4.1678
-4.0766
-3.98779
-3.90139
-3.81738
-3.73577
-3.65657
-3.57976
-3.50535
-3.43335
-3.36374
-3.29653
-3.23172
-3.16932
-3.10931
-3.0517
-2.99649
-2.94369
-2.89328
-2.84527
-2.79966
-2.75646
-2.71565
-2.67724
-2.64124
-2.60763
-2.57643
-2.54762
-2.52121
-2.49721
-2.47561
-2.4564
-2.4396
-2.4252
-2.41319
-2.40359
-2.39639
-2.39159
-2.38919
-2.38919
-2.39159
-2.39639
-2.40359
-2.41319
-2.4252
-2.4396
-2.4564
-2.47561
-2.49721
-2.52121
-2.54762
-2.57643
-2.60763
-2.64124
-2.67724
-2.71565
-2.75646
-2.79966
-2.84527
-2.89328
-2.94369
-2.99649
-3.0517
-3.10931
-3.16932
-3.23172
-3.29653
-3.36374
-3.43335
-3.50535
-3.57976
-3.65657
-3.73577
-3.81738
-3.90139
-3.98779
-4.0766
-4.1678
-4.26141
-4.35741
-4.45581
-4.55662
-4.65982
-4.76542
-4.87343
-4.98383
-5.09663
-5.21183
-5.32943
-5.21183
-5.09423
-4.97903
-4.86623
-4.75583
-4.64782
-4.54222
-4.43902
-4.33821
-4.23981
-4.14381
-4.0502
-3.959
-3.87019
-3.78378
-3.69978
-3.61817
-3.53897
-3.46216
-3.38775
-3.31574
-3.24614
-3.17893
-3.11412
-3.05171
-2.99171
-2.9341
-2.87889
-2.82608
-2.77568
-2.72767
-2.68206
-2.63886
-2.59805
-2.55964
-2.52364
-2.49003
-2.45882
-2.43002
-2.40361
-2.37961
-2.35801
-2.3388
-2.322
-2.3076
-2.29559
-2.28599
-2.27879
-2.27399
-2.27159
-2.27159
-2.27399
-2.27879
-2.28599
-2.29559
-2.3076
-2.322
-2.3388
-2.35801
-2.37961
-2.40361
-2.43002
-2.45882
-2.49003
-2.52364
-2.55964
-2.59805
-2.63886
-2.68206
-2.72767
-2.77568
-2.82608
-2.87889
-2.9341
-2.99171
-3.05171
-3.11412
-3.17893
-3.24614
-3.31574
-3.38775
-3.46216
-3.53897
-3.61817
-3.69978
-3.78378
-3.87019
-3.959
-4.0502
-4.14381
-4.23981
-4.33821
-4.43902
-4.54222
-4.64782
-4.75583
-4.86623
-4.97903
-5.09423
-5.21183
-5.09663
-4.97903
-4.86383
-4.75103
-4.64063
-4.53262
-4.42702
-4.32382
-4.22301
-4.12461
-4.02861
-3.935
-3.8438
-3.75499
-3.66858
-3.58458
-3.50297
-3.42376
-3.34696
-3.27255
-3.20054
-3.13094
-3.06373
-2.99892
-2.93651
-2.87651
-2.8189
-2.76369
-2.71088
-2.66048
-2.61247
-2.56686
-2.52365
-2.48285
-2.44444
-2.40843
-2.37483
-2.34362
-2.31482
-2.28841
-2.26441
-2.2428
-2.2236
-2.2068
-2.19239
-2.18039
-2.17079
-2.16359
-2.15879
-2.15639
-2.15639
-2.15879
-2.16359
-2.17079
-2.18039
-2.19239
-2.2068
-2.2236
-2.2428
-2.26441
-2.28841
-2.31482
-2.34362
-2.37483
-2.40843
-2.44444
-2.48285
-2.52365
-2.56686
-2.61247
-2.66048
-2.71088
-2.76369
-2.8189
-2.87651
-2.93651
-2.99892
-3.06373
-3.13094
-3.20054
-3.27255
-3.34696
-3.42376
-3.50297
-3.58458
-3.66858
-3.75499
-3.8438
-3.935
-4.02861
-4.12461
-4.22301
-4.32382
-4.42702
-4.53262
-4.64063
-4.75103
-4.86383
-4.97903
-5.09663
-4.98383
-4.86623
-4.75103
-4.63823
-4.52782
-4.41982
-4.31422
-4.21102
-4.11021
-4.01181
-3.9158
-3.8222
-3.73099
-3.64219
-3.55578
-3.47178
-3.39017
-3.31096
-3.23416
-3.15975
-3.08774
-3.01813
-2.95093
-2.88612
-2.82371
-2.7637
-2.7061
-2.65089
-2.59808
-2.54767
-2.49967
-2.45406
-2.41085
-2.37004
-2.33164
-2.29563
-2.26203
-2.23082
-2.20201
-2.17561
-2.15161
-2.13
-2.1108
-2.09399
-2.07959
-2.06759
-2.05799
-2.05078
-2.04598
-2.04358
-2.04358
-2.04598
-2.05078
-2.05799
-2.06759
-2.07959
-2.09399
-2.1108
-2.13
-2.15161
-2.17561
-2.20201
-2.23082
-2.26203
-2.29563
-2.33164
-2.37004
-2.41085
-2.45406
-2.49967
-2.54767
-2.59808
-2.65089
-2.7061
-2.7637
-2.82371
-2.88612
-2.95093
-3.01813
-3.08774
-3.15975
-3.23416
-3.31096
-3.39017
-3.47178
-3.55578
-3.64219
-3.73099
-3.8222
-3.9158
-4.01181
-4.11021
-4.21102
-4.31422
-4.41982
-4.52782
-4.63823
-4.75103
-4.86623
-4.98383
-4.87343
-4.75583
-4.64063
-4.52782
-4.41742
-4.30942
-4.20382
-4.10061
-3.99981
-3.90141
-3.8054
-3.7118
-3.62059
-3.53179
-3.44538
-3.36137
-3.27977
-3.20056
-3.12375
-3.04935
-2.97734
-2.90773
-2.84052
-2.77572
-2.71331
-2.6533
-2.59569
-2.54049
-2.48768
-2.43727
-2.38926
-2.34366
-2.30045
-2.25964
-2.22124
-2.18523
-2.15162
-2.12042
-2.09161
-2.06521
-2.0412
-2.0196
-2.00039
-1.98359
-1.96919
-1.95718
-1.94758
-1.94038
-1.93558
-1.93318
-1.93318
-1.93558
-1.94038
-1.94758
-1.95718
-1.96919
-1.98359
-2.00039
-2.0196
-2.0412
-2.06521
-2.09161
-2.12042
-2.15162
-2.18523
-2.22124
-2.25964
-2.30045
-2.34366
-2.38926
-2.43727
-2.48768
-2.54049
-2.59569
-2.6533
-2.71331
-2.77572
-2.84052
-2.90773
-2.97734
-3.04935
-3.12375
-3.20056
-3.27977
-3.36137
-3.44538
-3.53179
-3.62059
-3.7118
-3.8054
-3.90141
-3.99981
-4.10061
-4.20382
-4.30942
-4.41742
-4.52782
-4.64063
-4.75583
-4.87343
-4.76542
-4.64782
-4.53262
-4.41982
-4.30942
-4.20142
-4.09581
-3.99261
-3.89181
-3.7934
-3.6974
-3.60379
-3.51259
-3.42378
-3.33738
-3.25337
-3.17176
-3.09256
-3.01575
-2.94134
-2.86934
-2.79973
-2.73252
-2.66771
-2.60531
-2.5453
-2.48769
-2.43248
-2.37967
-2.32927
-2.28126
-2.23565
-2.19245
-2.15164
-2.11323
-2.07723
-2.04362
-2.01241
-1.98361
-1.9572
-1.9332
-1.91159
-1.89239
-1.87559
-1.86118
-1.84918
-1.83958
-1.83238
-1.82758
-1.82518
-1.82518
-1.82758
-1.83238
-1.83958
-1.84918
-1.86118
-1.87559
-1.89239
-1.91159
-1.9332
-1.9572
-1.98361
-2.01241
-2.04362
-2.07723
-2.11323
-2.15164
-2.19245
-2.23565
-2.28126
-2.32927
-2.37967
-2.43248
-2.48769
-2.5453
-2.60531
-2.66771
-2.73252
-2.79973
-2.86934
-2.94134
-3.01575
-3.09256
-3.17176
-3.25337
-3.33738
-3.42378
-3.51259
-3.60379
-3.6974
-3.7934
-3.89181
-3.99261
-4.09581
-4.20142
-4.30942
-4.41982
-4.53262
-4.64782
-4.76542
-4.65982
-4.54222
-4.42702
-4.31422
-4.20382
-4.09581
-3.99021
-3.88701
-3.7862
-3.6878
-3.5918
-3.49819
-3.40699
-3.31818
-3.23177
-3.14777
-3.06616
-2.98695
-2.91015
-2.83574
-2.76373
-2.69413
-2.62692
-2.56211
-2.4997
-2.43969
-2.38209
-2.32688
-2.27407
-2.22366
-2.17566
-2.13005
-2.08684
-2.04603
-2.00763
-1.97162
-1.93801
-1.90681
-1.878
-1.8516
-1.82759
-1.80599
-1.78678
-1.76998
-1.75558
-1.74358
-1.73397
-1.72677
-1.72197
-1.71957
-1.71957
-1.72197
-1.72677
-1.73397
-1.74358
-1.75558
-1.76998
-1.78678
-1.80599
-1.82759
-1.8516
-1.878
-1.90681
-1.93801
-1.97162
-2.00763
-2.04603
-2.08684
-2.13005
-2.17566
-2.22366
-2.27407
-2.32688
-2.38209
-2.43969
-2.4997
-2.56211
-2.62692
-2.69413
-2.76373
-2.83574
-2.91015
-2.98695
-3.06616
-3.14777
-3.23177
-3.31818
-3.40699
-3.49819
-3.5918
-3.6878
-3.7862
-3.88701
-3.99021
-4.09581
-4.20382
-4.31422
-4.42702
-4.54222
-4.65982
-4.55662
-4.43902
-4.32382
-4.21102
-4.10061
-3.99261
-3.88701
-3.78381
-3.683
-3.5846
-3.48859
-3.39499
-3.30378
-3.21498
-3.12857
-3.04456
-2.96296
-2.88375
-2.80694
-2.73254
-2.66053
-2.59092
-2.52371
-2.45891
-2.3965
-2.33649
-2.27888
-2.22367
-2.17087
-2.12046
-2.07245
-2.02684
-1.98364
-1.94283
-1.90442
-1.86842
-1.83481
-1.8036
-1.7748
-1.74839
-1.72439
-1.70278
-1.68358
-1.66678
-1.65237
-1.64037
-1.63077
-1.62357
-1.61877
-1.61636
-1.61636
-1.61877
-1.62357
-1.63077
-1.64037
-1.65237
-1.66678
-1.68358
-1.70278
-1.72439
-1.74839
-1.7748
-1.8036
-1.83481
-1.86842
-1.90442
-1.94283
-1.98364
-2.02684
-2.07245
-2.12046
-2.17087
-2.22367
-2.27888
-2.33649
-2.3965
-2.45891
-2.52371
-2.59092
-2.66053
-2.73254
-2.80694
-2.88375
-2.96296
-3.04456
-3.12857
-3.21498
-3.30378
-3.39499
-3.48859
-3.5846
-3.683
-3.78381
-3.88701
-3.99261
-4.10061
-4.21102
-4.32382
-4.43902
-4.55662
-4.45581
-4.33821
-4.22301
-4.11021
-3.99981
-3.89181
-3.7862
-3.683
-3.5822
-3.48379
-3.38779
-3.29418
-3.20298
-3.11417
-3.02777
-2.94376
-2.86215
-2.78295
-2.70614
-2.63173
-2.55972
-2.49012
-2.42291
-2.3581
-2.29569
-2.23568
-2.17808
-2.12287
-2.07006
-2.01965
-1.97164
-1.92604
-1.88283
-1.84202
-1.80362
-1.76761
-1.734
-1.7028
-1.67399
-1.64759
-1.62358
-1.60198
-1.58277
-1.56597
-1.55157
-1.53956
-1.52996
-1.52276
-1.51796
-1.51556
-1.51556
-1.51796
-1.52276
-1.52996
-1.53956
-1.55157
-1.56597
-1.58277
-1.60198
-1.62358
-1.64759
-1.67399
-1.7028
-1.734
-1.76761
-1.80362
-1.84202
-1.88283
-1.92604
-1.97164
-2.01965
-2.07006
-2.12287
-2.17808
-2.23568
-2.29569
-2.3581
-2.42291
-2.49012
-2.55972
-2.63173
-2.70614
-2.78295
-2.86215
-2.94376
-3.02777
-3.11417
-3.20298
-3.29418
-3.38779
-3.48379
-3.5822
-3.683
-3.7862
-3.89181
-3.99981
-4.11021
-4.22301
-4.33821
-4.45581
-4.35741
-4.23981
-4.12461
-4.01181
-3.90141
-3.7934
-3.6878
-3.5846
-3.48379
-3.38539
-3.28938
-3.19578
-3.10457
-3.01577
-2.92936
-2.84536
-2.76375
-2.68454
-2.60773
-2.53333
-2.46132
-2.39171
-2.3245
-2.2597
-2.19729
-2.13728
-2.07967
-2.02446
-1.97165
-1.92125
-1.87324
-1.82763
-1.78442
-1.74362
-1.70521
-1.6692
-1.6356
-1.60439
-1.57558
-1.54918
-1.52517
-1.50357
-1.48436
-1.46756
-1.45316
-1.44116
-1.43155
-1.42435
-1.41955
-1.41715
-1.41715
-1.41955
-1.42435
-1.43155
-1.44116
-1.45316
-1.46756
-1.48436
-1.50357
-1.52517
-1.54918
-1.57558
-1.60439
-1.6356
-1.6692
-1.70521
-1.74362
-1.78442
-1.82763
-1.87324
-1.92125
-1.97165
-2.02446
-2.07967
-2.13728
-2.19729
-2.2597
-2.3245
-2.39171
-2.46132
-2.53333
-2.60773
-2.68454
-2.76375
-2.84536
-2.92936
-3.01577
-3.10457
-3.19578
-3.28938
-3.38539
-3.48379
-3.5846
-3.6878
-3.7934
-3.90141
-4.01181
-4.12461
-4.23981
-4.35741
-4.26141
-4.14381
-4.02861
-3.9158
-3.8054
-3.6974
-3.5918
-3.48859
-3.38779
-3.28938
-3.19338
-3.09977
-3.00857
-2.91976
-2.83336
-2.74935
-2.66774
-2.58854
-2.51173
-2.43732
-2.36531
-2.29571
-2.2285
-2.16369
-2.10128
-2.04127
-1.98366
-1.92846
-1.87565
-1.82524
-1.77723
-1.73162
-1.68842
-1.64761
-1.6092
-1.57319
-1.53959
-1.50838
-1.47958
-1.45317
-1.42917
-1.40756
-1.38836
-1.37155
-1.35715
-1.34515
-1.33555
-1.32834
-1.32354
-1.32114
-1.32114
-1.32354
-1.32834
-1.33555
-1.34515
-1.35715
-1.37155
-1.38836
-1.40756
-1.42917
-1.45317
-1.47958
-1.50838
-1.53959
-1.57319
-1.6092
-1.64761
-1.68842
-1.73162
-1.77723
-1.82524
-1.87565
-1.92846
-1.98366
-2.04127
-2.10128
-2.16369
-2.2285
-2.29571
-2.36531
-2.43732
-2.51173
-2.58854
-2.66774
-2.74935
-2.83336
-2.91976
-3.00857
-3.09977
-3.19338
-3.28938
-3.38779
-3.48859
-3.5918
-3.6974
-3.8054
-3.9158
-4.02861
-4.14381
-4.26141
-4.1678
-4.0502
-3.935
-3.8222
-3.7118
-3.60379
-3.49819
-3.39499
-3.29418
-3.19578
-3.09977
-3.00617
-2.91496
-2.82616
-2.73975
-2.65574
-2.57414
-2.49493
-2.41812
-2.34372
-2.27171
-2.2021
-2.13489
-2.07008
-2.00767
-1.94767
-1.89006
-1.83485
-1.78204
-1.73163
-1.68362
-1.63802
-1.59481
-1.554
-1.51559
-1.47959
-1.44598
-1.41477
-1.38597
-1.35956
-1.33556
-1.31395
-1.29475
-1.27794
-1.26354
-1.25154
-1.24194
-1.23473
-1.22993
-1.22753
-1.22753
-1.22993
-1.23473
-1.24194
-1.25154
-1.26354
-1.27794
-1.29475
-1.31395
-1.33556
-1.35956
-1.38597
-1.41477
-1.44598
-1.47959
-1.51559
-1.554
-1.59481
-1.63802
-1.68362
-1.73163
-1.78204
-1.83485
-1.89006
-1.94767
-2.00767
-2.07008
-2.13489
-2.2021
-2.27171
-2.34372
-2.41812
-2.49493
-2.57414
-2.65574
-2.73975
-2.82616
-2.91496
-3.00617
-3.09977
-3.19578
-3.29418
-3.39499
-3.49819
-3.60379
-3.7118
-3.8222
-3.935
-4.0502
-4.1678
-4.0766
-3.959
-3.8438
-3.73099
-3.62059
-3.51259
-3.40699
-3.30378
-3.20298
-3.10457
-3.00857
-2.91496
-2.82376
-2.73495
-2.64855
-2.56454
-2.48293
-2.40372
-2.32692
-2.25251
-2.1805
-2.11089
-2.04368
-1.97888
-1.91647
-1.85646
-1.79885
-1.74364
-1.69083
-1.64042
-1.59242
-1.54681
-1.5036
-1.46279
-1.42438
-1.38838
-1.35477
-1.32356
-1.29476
-1.26835
-1.24435
-1.22274
-1.20354
-1.18673
-1.17233
-1.16033
-1.15073
-1.14352
-1.13872
-1.13632
-1.13632
-1.13872
-1.14352
-1.15073
-1.16033
-1.17233
-1.18673
-1.20354
-1.22274
-1.24435
-1.26835
-1.29476
-1.32356
-1.35477
-1.38838
-1.42438
-1.46279
-1.5036
-1.54681
-1.59242
-1.64042
-1.69083
-1.74364
-1.79885
-1.85646
-1.91647
-1.97888
-2.04368
-2.11089
-2.1805
-2.25251
-2.32692
-2.40372
-2.48293
-2.56454
-2.64855
-2.73495
-2.82376
-2.91496
-3.00857
-3.10457
-3.20298
-3.30378
-3.40699
-3.51259
-3.62059
-3.73099
-3.8438
-3.959
-4.0766
-3.98779
-3.87019
-3.75499
-3.64219
-3.53179
-3.42378
-3.31818
-3.21498
-3.11417
-3.01577
-2.91976
-2.82616
-2.73495
-2.64615
-2.55974
-2.47573
-2.39413
-2.31492
-2.23811
-2.1637
-2.09169
-2.02209
-1.95488
-1.89007
-1.82766
-1.76765
-1.71004
-1.65483
-1.60202
-1.55162
-1.50361
-1.458
-1.41479
-1.37398
-1.33558
-1.29957
-1.26596
-1.23475
-1.20595
-1.17954
-1.15554
-1.13393
-1.11473
-1.09792
-1.08352
-1.07152
-1.06192
-1.05471
-1.04991
-1.04751
-1.04751
-1.04991
-1.05471
-1.06192
-1.07152
-1.08352
-1.09792
-1.11473
-1.13393
-1.15554
-1.17954
-1.20595
-1.23475
-1.26596
-1.29957
-1.33558
-1.37398
-1.41479
-1.458
-1.50361
-1.55162
-1.60202
-1.65483
-1.71004
-1.76765
-1.82766
-1.89007
-1.95488
-2.02209
-2.09169
-2.1637
-2.23811
-2.31492
-2.39413
-2.47573
-2.55974
-2.64615
-2.73495
-2.82616
-2.91976
-3.01577
-3.11417
-3.21498
-3.31818
-3.42378
-3.53179
-3.64219
-3.75499
-3.87019
-3.98779
-3.90139
-3.78378
-3.66858
-3.55578
-3.44538
-3.33738
-3.23177
-3.12857
-3.02777
-2.92936
-2.83336
-2.73975
-2.64855
-2.55974
-2.47333
-2.38933
-2.30772
-2.22851
-2.1517
-2.07729
-2.00529
-1.93568
-1.86847
-1.80366
-1.74125
-1.68124
-1.62363
-1.56842
-1.51562
-1.46521
-1.4172
-1.37159
-1.32838
-1.28757
-1.24917
-1.21316
-1.17955
-1.14834
-1.11954
-1.09313
-1.06913
-1.04752
-1.02832
-1.01151
-0.99711
-0.985107
-0.975505
-0.968303
-0.963502
-0.961102
-0.961102
-0.963502
-0.968303
-0.975505
-0.985107
-0.99711
-1.01151
-1.02832
-1.04752
-1.06913
-1.09313
-1.11954
-1.14834
-1.17955
-1.21316
-1.24917
-1.28757
-1.32838
-1.37159
-1.4172
-1.46521
-1.51562
-1.56842
-1.62363
-1.68124
-1.74125
-1.80366
-1.86847
-1.93568
-2.00529
-2.07729
-2.1517
-2.22851
-2.30772
-2.38933
-2.47333
-2.55974
-2.64855
-2.73975
-2.83336
-2.92936
-3.02777
-3.12857
-3.23177
-3.33738
-3.44538
-3.55578
-3.66858
-3.78378
-3.90139
-3.81738
-3.69978
-3.58458
-3.47178
-3.36137
-3.25337
-3.14777
-3.04456
-2.94376
-2.84536
-2.74935
-2.65574
-2.56454
-2.47573
-2.38933
-2.30532
-2.22371
-2.1445
-2.0677
-1.99329
-1.92128
-1.85167
-1.78446
-1.71965
-1.65724
-1.59723
-1.53962
-1.48442
-1.43161
-1.3812
-1.33319
-1.28758
-1.24437
-1.20356
-1.16516
-1.12915
-1.09554
-1.06433
-1.03553
-1.00912
-0.985116
-0.963511
-0.944306
-0.927502
-0.913099
-0.901096
-0.891494
-0.884292
-0.879491
-0.87709
-0.87709
-0.879491
-0.884292
-0.891494
-0.901096
-0.913099
-0.927502
-0.944306
-0.963511
-0.985116
-1.00912
-1.03553
-1.06433
-1.09554
-1.12915
-1.16516
-1.20356
-1.24437
-1.28758
-1.33319
-1.3812
-1.43161
-1.48442
-1.53962
-1.59723
-1.65724
-1.71965
-1.78446
-1.85167
-1.92128
-1.99329
-2.0677
-2.1445
-2.22371
-2.30532
-2.38933
-2.47573
-2.56454
-2.65574
-2.74935
-2.84536
-2.94376
-3.04456
-3.14777
-3.25337
-3.36137
-3.47178
-3.58458
-3.69978
-3.81738
-3.73577
-3.61817
-3.50297
-3.39017
-3.27977
-3.17176
-3.06616
-2.96296
-2.86215
-2.76375
-2.66774
-2.57414
-2.48293
-2.39413
-2.30772
-2.22371
-2.1421
-2.0629
-1.98609
-1.91168
-1.83967
-1.77006
-1.70285
-1.63804
-1.57563
-1.51562
-1.45802
-1.40281
-1.35
-1.29959
-1.25158
-1.20597
-1.16276
-1.12195
-1.08354
-1.04754
-1.01393
-0.982723
-0.953916
-0.92751
-0.903504
-0.881899
-0.862695
-0.84589
-0.831487
-0.819484
-0.809881
-0.80268
-0.797878
-0.795478
-0.795478
-0.797878
-0.80268
-0.809881
-0.819484
-0.831487
-0.84589
-0.862695
-0.881899
-0.903504
-0.92751
-0.953916
-0.982723
-1.01393
-1.04754
-1.08354
-1.12195
-1.16276
-1.20597
-1.25158
-1.29959
-1.35
-1.40281
-1.45802
-1.51562
-1.57563
-1.63804
-1.70285
-1.77006
-1.83967
-1.91168
-1.98609
-2.0629
-2.1421
-2.22371
-2.30772
-2.39413
-2.48293
-2.57414
-2.66774
-2.76375
-2.86215
-2.96296
-3.06616
-3.17176
-3.27977
-3.39017
-3.50297
-3.61817
-3.73577
-3.65657
-3.53897
-3.42376
-3.31096
-3.20056
-3.09256
-2.98695
-2.88375
-2.78295
-2.68454
-2.58854
-2.49493
-2.40372
-2.31492
-2.22851
-2.1445
-2.0629
-1.98369
-1.90688
-1.83247
-1.76046
-1.69085
-1.62364
-1.55883
-1.49642
-1.43641
-1.37881
-1.3236
-1.27079
-1.22038
-1.17237
-1.12676
-1.08355
-1.04274
-1.00433
-0.968326
-0.934718
-0.903511
-0.874704
-0.848298
-0.824292
-0.802687
-0.783482
-0.766678
-0.752274
-0.740271
-0.730669
-0.723467
-0.718666
-0.716265
-0.716265
-0.718666
-0.723467
-0.730669
-0.740271
-0.752274
-0.766678
-0.783482
-0.802687
-0.824292
-0.848298
-0.874704
-0.903511
-0.934718
-0.968326
-1.00433
-1.04274
-1.08355
-1.12676
-1.17237
-1.22038
-1.27079
-1.3236
-1.37881
-1.43641
-1.49642
-1.55883
-1.62364
-1.69085
-1.76046
-1.83247
-1.90688
-1.98369
-2.0629
-2.1445
-2.22851
-2.31492
-2.40372
-2.49493
-2.58854
-2.68454
-2.78295
-2.88375
-2.98695
-3.09256
-3.20056
-3.31096
-3.42376
-3.53897
-3.65657
-3.57976
-3.46216
-3.34696
-3.23416
-3.12375
-3.01575
-2.91015
-2.80694
-2.70614
-2.60773
-2.51173
-2.41812
-2.32692
-2.23811
-2.1517
-2.0677
-1.98609
-1.90688
-1.83007
-1.75566
-1.68365
-1.61404
-1.54683
-1.48202
-1.41961
-1.3596
-1.302
-1.24679
-1.19398
-1.14357
-1.09556
-1.04995
-1.00674
-0.96593
-0.927522
-0.891514
-0.857906
-0.826699
-0.797892
-0.771486
-0.74748
-0.725874
-0.706669
-0.689865
-0.675461
-0.663458
-0.653856
-0.646654
-0.641852
-0.639452
-0.639452
-0.641852
-0.646654
-0.653856
-0.663458
-0.675461
-0.689865
-0.706669
-0.725874
-0.74748
-0.771486
-0.797892
-0.826699
-0.857906
-0.891514
-0.927522
-0.96593
-1.00674
-1.04995
-1.09556
-1.14357
-1.19398
-1.24679
-1.302
-1.3596
-1.41961
-1.48202
-1.54683
-1.61404
-1.68365
-1.75566
-1.83007
-1.90688
-1.98609
-2.0677
-2.1517
-2.23811
-2.32692
-2.41812
-2.51173
-2.60773
-2.70614
-2.80694
-2.91015
-3.01575
-3.12375
-3.23416
-3.34696
-3.46216
-3.57976
-3.50535
-3.38775
-3.27255
-3.15975
-3.04935
-2.94134
-2.83574
-2.73254
-2.63173
-2.53333
-2.43732
-2.34372
-2.25251
-2.1637
-2.07729
-1.99329
-1.91168
-1.83247
-1.75566
-1.68125
-1.60924
-1.53963
-1.47242
-1.40761
-1.3452
-1.28519
-1.22758
-1.17237
-1.11957
-1.06916
-1.02115
-0.975536
-0.932327
-0.891518
-0.85311
-0.817102
-0.783494
-0.752286
-0.723479
-0.697073
-0.673067
-0.651461
-0.632256
-0.615452
-0.601048
-0.589045
-0.579442
-0.57224
-0.567439
-0.565038
-0.565038
-0.567439
-0.57224
-0.579442
-0.589045
-0.601048
-0.615452
-0.632256
-0.651461
-0.673067
-0.697073
-0.723479
-0.752286
-0.783494
-0.817102
-0.85311
-0.891518
-0.932327
-0.975536
-1.02115
-1.06916
-1.11957
-1.17237
-1.22758
-1.28519
-1.3452
-1.40761
-1.47242
-1.53963
-1.60924
-1.68125
-1.75566
-1.83247
-1.91168
-1.99329
-2.07729
-2.1637
-2.25251
-2.34372
-2.43732
-2.53333
-2.63173
-2.73254
-2.83574
-2.94134
-3.04935
-3.15975
-3.27255
-3.38775
-3.50535
-3.43335
-3.31574
-3.20054
-3.08774
-2.97734
-2.86934
-2.76373
-2.66053
-2.55972
-2.46132
-2.36531
-2.27171
-2.1805
-2.09169
-2.00529
-1.92128
-1.83967
-1.76046
-1.68365
-1.60924
-1.53723
-1.46762
-1.40041
-1.3356
-1.27319
-1.21318
-1.15557
-1.10036
-1.04755
-0.997144
-0.949134
-0.903525
-0.860315
-0.819506
-0.781097
-0.745089
-0.711481
-0.680273
-0.651466
-0.625059
-0.601053
-0.579448
-0.560242
-0.543438
-0.529034
-0.517031
-0.507428
-0.500226
-0.495425
-0.493024
-0.493024
-0.495425
-0.500226
-0.507428
-0.517031
-0.529034
-0.543438
-0.560242
-0.579448
-0.601053
-0.625059
-0.651466
-0.680273
-0.711481
-0.745089
-0.781097
-0.819506
-0.860315
-0.903525
-0.949134
-0.997144
-1.04755
-1.10036
-1.15557
-1.21318
-1.27319
-1.3356
-1.40041
-1.46762
-1.53723
-1.60924
-1.68365
-1.76046
-1.83967
-1.92128
-2.00529
-2.09169
-2.1805
-2.27171
-2.36531
-2.46132
-2.55972
-2.66053
-2.76373
-2.86934
-2.97734
-3.08774
-3.20054
-3.31574
-3.43335
-3.36374
-3.24614
-3.13094
-3.01813
-2.90773
-2.79973
-2.69413
-2.59092
-2.49012
-2.39171
-2.29571
-2.2021
-2.11089
-2.02209
-1.93568
-1.85167
-1.77006
-1.69085
-1.61404
-1.53963
-1.46762
-1.39801
-1.3308
-1.26599
-1.20358
-1.14357
-1.08596
-1.03075
-0.977943
-0.927532
-0.879522
-0.833913
-0.790703
-0.749894
-0.711485
-0.675476
-0.641868
-0.61066
-0.581853
-0.555446
-0.53144
-0.509834
-0.490629
-0.473824
-0.45942
-0.447417
-0.437814
-0.430612
-0.42581
-0.42341
-0.42341
-0.42581
-0.430612
-0.437814
-0.447417
-0.45942
-0.473824
-0.490629
-0.509834
-0.53144
-0.555446
-0.581853
-0.61066
-0.641868
-0.675476
-0.711485
-0.749894
-0.790703
-0.833913
-0.879522
-0.927532
-0.977943
-1.03075
-1.08596
-1.14357
-1.20358
-1.26599
-1.3308
-1.39801
-1.46762
-1.53963
-1.61404
-1.69085
-1.77006
-1.85167
-1.93568
-2.02209
-2.11089
-2.2021
-2.29571
-2.39171
-2.49012
-2.59092
-2.69413
-2.79973
-2.90773
-3.01813
-3.13094
-3.24614
-3.36374
-3.29653
-3.17893
-3.06373
-2.95093
-2.84052
-2.73252
-2.62692
-2.52371
-2.42291
-2.3245
-2.2285
-2.13489
-2.04368
-1.95488
-1.86847
-1.78446
-1.70285
-1.62364
-1.54683
-1.47242
-1.40041
-1.3308
-1.26359
-1.19878
-1.13637
-1.07636
-1.01875
-0.963541
-0.910731
-0.860321
-0.81231
-0.7667
-0.723491
-0.682681
-0.644272
-0.608263
-0.574655
-0.543447
-0.514639
-0.488232
-0.464226
-0.44262
-0.423414
-0.40661
-0.392206
-0.380202
-0.370599
-0.363397
-0.358596
-0.356195
-0.356195
-0.358596
-0.363397
-0.370599
-0.380202
-0.392206
-0.40661
-0.423414
-0.44262
-0.464226
-0.488232
-0.514639
-0.543447
-0.574655
-0.608263
-0.644272
-0.682681
-0.723491
-0.7667
-0.81231
-0.860321
-0.910731
-0.963541
-1.01875
-1.07636
-1.13637
-1.19878
-1.26359
-1.3308
-1.40041
-1.47242
-1.54683
-1.62364
-1.70285
-1.78446
-1.86847
-1.95488
-2.04368
-2.13489
-2.2285
-2.3245
-2.42291
-2.52371
-2.62692
-2.73252
-2.84052
-2.95093
-3.06373
-3.17893
-3.29653
-3.23172
-3.11412
-2.99892
-2.88612
-2.77572
-2.66771
-2.56211
-2.45891
-2.3581
-2.2597
-2.16369
-2.07008
-1.97888
-1.89007
-1.80366
-1.71965
-1.63804
-1.55883
-1.48202
-1.40761
-1.3356
-1.26599
-1.19878
-1.13397
-1.07156
-1.01155
-0.953941
-0.89873
-0.845919
-0.795509
-0.747498
-0.701888
-0.658678
-0.617868
-0.579459
-0.54345
-0.509841
-0.478633
-0.449825
-0.423418
-0.399412
-0.377806
-0.3586
-0.341795
-0.327391
-0.315388
-0.305785
-0.298583
-0.293781
-0.291381
-0.291381
-0.293781
-0.298583
-0.305785
-0.315388
-0.327391
-0.341795
-0.3586
-0.377806
-0.399412
-0.423418
-0.449825
-0.478633
-0.509841
-0.54345
-0.579459
-0.617868
-0.658678
-0.701888
-0.747498
-0.795509
-0.845919
-0.89873
-0.953941
-1.01155
-1.07156
-1.13397
-1.19878
-1.26599
-1.3356
-1.40761
-1.48202
-1.55883
-1.63804
-1.71965
-1.80366
-1.89007
-1.97888
-2.07008
-2.16369
-2.2597
-2.3581
-2.45891
-2.56211
-2.66771
-2.77572
-2.88612
-2.99892
-3.11412
-3.23172
-3.16932
-3.05171
-2.93651
-2.82371
-2.71331
-2.60531
-2.4997
-2.3965
-2.29569
-2.19729
-2.10128
-2.00767
-1.91647
-1.82766
-1.74125
-1.65724
-1.57563
-1.49642
-1.41961
-1.3452
-1.27319
-1.20358
-1.13637
-1.07156
-1.00915
-0.94914
-0.891529
-0.836318
-0.783507
-0.733096
-0.685086
-0.639475
-0.596265
-0.555455
-0.517046
-0.481036
-0.447428
-0.416219
-0.387411
-0.361004
-0.336997
-0.315391
-0.296186
-0.279381
-0.264976
-0.252973
-0.24337
-0.236168
-0.231366
-0.228966
-0.228966
-0.231366
-0.236168
-0.24337
-0.252973
-0.264976
-0.279381
-0.296186
-0.315391
-0.336997
-0.361004
-0.387411
-0.416219
-0.447428
-0.481036
-0.517046
-0.555455
-0.596265
-0.639475
-0.685086
-0.733096
-0.783507
-0.836318
-0.891529
-0.94914
-1.00915
-1.07156
-1.13637
-1.20358
-1.27319
-1.3452
-1.41961
-1.49642
-1.57563
-1.65724
-1.74125
-1.82766
-1.91647
-2.00767
-2.10128
-2.19729
-2.29569
-2.3965
-2.4997
-2.60531
-2.71331
-2.82371
-2.93651
-3.05171
-3.16932
-3.10931
-2.99171
-2.87651
-2.7637
-2.6533
-2.5453
-2.43969
-2.33649
-2.23568
-2.13728
-2.04127
-1.94767
-1.85646
-1.76765
-1.68124
-1.59723
-1.51562
-1.43641
-1.3596
-1.28519
-1.21318
-1.14357
-1.07636
-1.01155
-0.94914
-0.889129
-0.831518
-0.776306
-0.723495
-0.673084
-0.625073
-0.579463
-0.536252
-0.495442
-0.457032
-0.421023
-0.387414
-0.356205
-0.327397
-0.30099
-0.276983
-0.255377
-0.236171
-0.219366
-0.204962
-0.192958
-0.183355
-0.176153
-0.171352
-0.168951
-0.168951
-0.171352
-0.176153
-0.183355
-0.192958
-0.204962
-0.219366
-0.236171
-0.255377
-0.276983
-0.30099
-0.327397
-0.356205
-0.387414
-0.421023
-0.457032
-0.495442
-0.536252
-0.579463
-0.625073
-0.673084
-0.723495
-0.776306
-0.831518
-0.889129
-0.94914
-1.01155
-1.07636
-1.14357
-1.21318
-1.28519
-1.3596
-1.43641
-1.51562
-1.59723
-1.68124
-1.76765
-1.85646
-1.94767
-2.04127
-2.13728
-2.23568
-2.33649
-2.43969
-2.5453
-2.6533
-2.7637
-2.87651
-2.99171
-3.10931
-3.0517
-2.9341
-2.8189
-2.7061
-2.59569
-2.48769
-2.38209
-2.27888
-2.17808
-2.07967
-1.98366
-1.89006
-1.79885
-1.71004
-1.62363
-1.53962
-1.45802
-1.37881
-1.302
-1.22758
-1.15557
-1.08596
-1.01875
-0.953941
-0.891529
-0.831518
-0.773906
-0.718695
-0.665883
-0.615472
-0.567461
-0.52185
-0.478639
-0.437829
-0.399419
-0.363409
-0.3298
-0.298592
-0.269783
-0.243376
-0.219369
-0.197762
-0.178557
-0.161752
-0.147347
-0.135343
-0.12574
-0.118538
-0.113737
-0.111336
-0.111336
-0.113737
-0.118538
-0.12574
-0.135343
-0.147347
-0.161752
-0.178557
-0.197762
-0.219369
-0.243376
-0.269783
-0.298592
-0.3298
-0.363409
-0.399419
-0.437829
-0.478639
-0.52185
-0.567461
-0.615472
-0.665883
-0.718695
-0.773906
-0.831518
-0.891529
-0.953941
-1.01875
-1.08596
-1.15557
-1.22758
-1.302
-1.37881
-1.45802
-1.53962
-1.62363
-1.71004
-1.79885
-1.89006
-1.98366
-2.07967
-2.17808
-2.27888
-2.38209
-2.48769
-2.59569
-2.7061
-2.8189
-2.9341
-3.0517
-2.99649
-2.87889
-2.76369
-2.65089
-2.54049
-2.43248
-2.32688
-2.22367
-2.12287
-2.02446
-1.92846
-1.83485
-1.74364
-1.65483
-1.56842
-1.48442
-1.40281
-1.3236
-1.24679
-1.17237
-1.10036
-1.03075
-0.963541
-0.89873
-0.836318
-0.776306
-0.718695
-0.663483
-0.610671
-0.56026
-0.512248
-0.466637
-0.423426
-0.382616
-0.344206
-0.308196
-0.274587
-0.243378
-0.214569
-0.188162
-0.164155
-0.142548
-0.123342
-0.106537
-0.0921325
-0.0801287
-0.0705257
-0.0633234
-0.0585219
-0.0561211
-0.0561211
-0.0585219
-0.0633234
-0.0705257
-0.0801287
-0.0921325
-0.106537
-0.123342
-0.142548
-0.164155
-0.188162
-0.214569
-0.243378
-0.274587
-0.308196
-0.344206
-0.382616
-0.423426
-0.466637
-0.512248
-0.56026
-0.610671
-0.663483
-0.718695
-0.776306
-0.836318
-0.89873
-0.963541
-1.03075
-1.10036
-1.17237
-1.24679
-1.3236
-1.40281
-1.48442
-1.56842
-1.65483
-1.74364
-1.83485
-1.92846
-2.02446
-2.12287
-2.22367
-2.32688
-2.43248
-2.54049
-2.65089
-2.76369
-2.87889
-2.99649
-2.94369
-2.82608
-2.71088
-2.59808
-2.48768
-2.37967
-2.27407
-2.17087
-2.07006
-1.97165
-1.87565
-1.78204
-1.69083
-1.60202
-1.51562
-1.43161
-1.35
-1.27079
-1.19398
-1.11957
-1.04755
-0.977943
-0.910731
-0.845919
-0.783507
-0.723495
-0.665883
-0.610671
-0.557859
-0.507448
-0.459436
-0.413825
-0.370614
-0.329803
-0.291393
-0.255383
-0.221773
-0.190564
-0.161756
-0.135348
-0.111341
-0.0897339
-0.0705279
-0.0537226
-0.039318
-0.0273142
-0.0177111
-0.0105088
-0.00570724
-0.00330646
-0.00330646
-0.00570724
-0.0105088
-0.0177111
-0.0273142
-0.039318
-0.0537226
-0.0705279
-0.0897339
-0.111341
-0.135348
-0.161756
-0.190564
-0.221773
-0.255383
-0.291393
-0.329803
-0.370614
-0.413825
-0.459436
-0.507448
-0.557859
-0.610671
-0.665883
-0.723495
-0.783507
-0.845919
-0.910731
-0.977943
-1.04755
-1.11957
-1.19398
-1.27079
-1.35
-1.43161
-1.51562
-1.60202
-1.69083
-1.78204
-1.87565
-1.97165
-2.07006
-2.17087
-2.27407
-2.37967
-2.48768
-2.59808
-2.71088
-2.82608
-2.94369
-2.89328
-2.77568
-2.66048
-2.54767
-2.43727
-2.32927
-2.22366
-2.12046
-2.01965
-1.92125
-1.82524
-1.73163
-1.64042
-1.55162
-1.46521
-1.3812
-1.29959
-1.22038
-1.14357
-1.06916
-0.997144
-0.927532
-0.860321
-0.795509
-0.733096
-0.673084
-0.615472
-0.56026
-0.507448
-0.457036
-0.409024
-0.363412
-0.320201
-0.27939
-0.24098
-0.204969
-0.17136
-0.140151
-0.111342
-0.084934
-0.0609266
-0.0393199
-0.0201138
-0.00330842
0.0110962
0.0231001
0.0327033
0.0399056
0.0447072
0.047108
0.047108
0.0447072
0.0399056
0.0327033
0.0231001
0.0110962
-0.00330842
-0.0201138
-0.0393199
-0.0609266
-0.084934
-0.111342
-0.140151
-0.17136
-0.204969
-0.24098
-0.27939
-0.320201
-0.363412
-0.409024
-0.457036
-0.507448
-0.56026
-0.615472
-0.673084
-0.733096
-0.795509
-0.860321
-0.927532
-0.997144
-1.06916
-1.14357
-1.22038
-1.29959
-1.3812
-1.46521
-1.55162
-1.64042
-1.73163
-1.82524
-1.92125
-2.01965
-2.12046
-2.22366
-2.32927
-2.43727
-2.54767
-2.66048
-2.77568
-2.89328
-2.84527
-2.72767
-2.61247
-2.49967
-2.38926
-2.28126
-2.17566
-2.07245
-1.97164
-1.87324
-1.77723
-1.68362
-1.59242
-1.50361
-1.4172
-1.33319
-1.25158
-1.17237
-1.09556
-1.02115
-0.949134
-0.879522
-0.81231
-0.747498
-0.685086
-0.625073
-0.567461
-0.512248
-0.459436
-0.409024
-0.361012
-0.3154
-0.272189
-0.231378
-0.192967
-0.156957
-0.123347
-0.0921374
-0.0633286
-0.0369205
-0.012913
0.0086939
0.0279001
0.0447055
0.0591102
0.0711142
0.0807174
0.0879198
0.0927214
0.0951222
0.0951222
0.0927214
0.0879198
0.0807174
0.0711142
0.0591102
0.0447055
0.0279001
0.0086939
-0.012913
-0.0369205
-0.0633286
-0.0921374
-0.123347
-0.156957
-0.192967
-0.231378
-0.272189
-0.3154
-0.361012
-0.409024
-0.459436
-0.512248
-0.567461
-0.625073
-0.685086
-0.747498
-0.81231
-0.879522
-0.949134
-1.02115
-1.09556
-1.17237
-1.25158
-1.33319
-1.4172
-1.50361
-1.59242
-1.68362
-1.77723
-1.87324
-1.97164
-2.07245
-2.17566
-2.28126
-2.38926
-2.49967
-2.61247
-2.72767
-2.84527
-2.79966
-2.68206
-2.56686
-2.45406
-2.34366
-2.23565
-2.13005
-2.02684
-1.92604
-1.82763
-1.73162
-1.63802
-1.54681
-1.458
-1.37159
-1.28758
-1.20597
-1.12676
-1.04995
-0.975536
-0.903525
-0.833913
-0.7667
-0.701888
-0.639475
-0.579463
-0.52185
-0.466637
-0.413825
-0.363412
-0.3154
-0.269788
-0.226577
-0.185765
-0.147354
-0.111344
-0.0777338
-0.0465244
-0.0177155
0.00869277
0.0327004
0.0543074
0.0735136
0.0903192
0.104724
0.116728
0.126331
0.133534
0.138335
0.140736
0.140736
0.138335
0.133534
0.126331
0.116728
0.104724
0.0903192
0.0735136
0.0543074
0.0327004
0.00869277
-0.0177155
-0.0465244
-0.0777338
-0.111344
-0.147354
-0.185765
-0.226577
-0.269788
-0.3154
-0.363412
-0.413825
-0.466637
-0.52185
-0.579463
-0.639475
-0.701888
-0.7667
-0.833913
-0.903525
-0.975536
-1.04995
-1.12676
-1.20597
-1.28758
-1.37159
-1.458