/*--------------------------------*- C++ -*----------------------------------*\
| =========                 |                                                 |
| \\      /  F ield         | OpenFOAM: The Open Source CFD Toolbox           |
|  \\    /   O peration     | Version:  v1806                                 |
|   \\  /    A nd           | Web:      www.OpenFOAM.com                      |
|    \\/     M anipulation  |                                                 |
\*---------------------------------------------------------------------------*/
FoamFile
{
    version     2.0;
    format      ascii;
    class       volScalarField;
    location    "1";
    object      y;
}
// * * * * * * * * * * * * * * * * * * * * * * * * * * * * * * * * * * * * * //

dimensions      [0 0 0 0 0 0 0];


internalField   nonuniform List<scalar> 
10000
(
0.944833
0.94483
0.944825
0.944816
0.944805
0.944792
0.944775
0.944757
0.944735
0.944711
0.944685
0.944657
0.944626
0.944593
0.944558
0.944521
0.944483
0.944443
0.944401
0.944358
0.944314
0.944268
0.944222
0.944175
0.944128
0.94408
0.944032
0.943984
0.943936
0.943889
0.943842
0.943796
0.943751
0.943707
0.943665
0.943624
0.943585
0.943548
0.943513
0.94348
0.94345
0.943422
0.943397
0.943375
0.943356
0.94334
0.943327
0.943317
0.94331
0.943307
0.943307
0.94331
0.943317
0.943327
0.94334
0.943356
0.943375
0.943397
0.943422
0.94345
0.94348
0.943513
0.943548
0.943585
0.943624
0.943665
0.943707
0.943751
0.943796
0.943842
0.943889
0.943936
0.943984
0.944032
0.94408
0.944128
0.944175
0.944222
0.944268
0.944314
0.944358
0.944401
0.944443
0.944483
0.944521
0.944558
0.944593
0.944626
0.944657
0.944685
0.944711
0.944735
0.944757
0.944775
0.944792
0.944805
0.944816
0.944825
0.94483
0.944833
0.94483
0.944827
0.944822
0.944813
0.944802
0.944789
0.944773
0.944754
0.944732
0.944708
0.944682
0.944653
0.944622
0.944589
0.944554
0.944518
0.944479
0.944439
0.944397
0.944354
0.944309
0.944264
0.944217
0.94417
0.944122
0.944074
0.944026
0.943978
0.94393
0.943883
0.943836
0.943789
0.943744
0.9437
0.943658
0.943617
0.943577
0.94354
0.943505
0.943472
0.943442
0.943414
0.943389
0.943366
0.943347
0.943331
0.943318
0.943308
0.943301
0.943298
0.943298
0.943301
0.943308
0.943318
0.943331
0.943347
0.943366
0.943389
0.943414
0.943442
0.943472
0.943505
0.94354
0.943577
0.943617
0.943658
0.9437
0.943744
0.943789
0.943836
0.943883
0.94393
0.943978
0.944026
0.944074
0.944122
0.94417
0.944217
0.944264
0.944309
0.944354
0.944397
0.944439
0.944479
0.944518
0.944554
0.944589
0.944622
0.944653
0.944682
0.944708
0.944732
0.944754
0.944773
0.944789
0.944802
0.944813
0.944822
0.944827
0.94483
0.944825
0.944822
0.944816
0.944808
0.944797
0.944783
0.944767
0.944748
0.944726
0.944702
0.944675
0.944647
0.944616
0.944582
0.944547
0.94451
0.944471
0.94443
0.944388
0.944345
0.9443
0.944254
0.944207
0.94416
0.944112
0.944064
0.944015
0.943966
0.943918
0.94387
0.943823
0.943776
0.943731
0.943686
0.943643
0.943602
0.943562
0.943525
0.943489
0.943456
0.943425
0.943397
0.943372
0.943349
0.94333
0.943313
0.9433
0.94329
0.943283
0.94328
0.94328
0.943283
0.94329
0.9433
0.943313
0.94333
0.943349
0.943372
0.943397
0.943425
0.943456
0.943489
0.943525
0.943562
0.943602
0.943643
0.943686
0.943731
0.943776
0.943823
0.94387
0.943918
0.943966
0.944015
0.944064
0.944112
0.94416
0.944207
0.944254
0.9443
0.944345
0.944388
0.94443
0.944471
0.94451
0.944547
0.944582
0.944616
0.944647
0.944675
0.944702
0.944726
0.944748
0.944767
0.944783
0.944797
0.944808
0.944816
0.944822
0.944825
0.944816
0.944813
0.944808
0.944799
0.944788
0.944774
0.944758
0.944739
0.944717
0.944693
0.944666
0.944637
0.944605
0.944572
0.944536
0.944499
0.944459
0.944418
0.944376
0.944332
0.944287
0.94424
0.944193
0.944145
0.944096
0.944047
0.943998
0.943949
0.9439
0.943851
0.943803
0.943756
0.94371
0.943665
0.943622
0.94358
0.943539
0.943501
0.943465
0.943432
0.9434
0.943372
0.943346
0.943323
0.943304
0.943287
0.943273
0.943263
0.943257
0.943253
0.943253
0.943257
0.943263
0.943273
0.943287
0.943304
0.943323
0.943346
0.943372
0.9434
0.943432
0.943465
0.943501
0.943539
0.94358
0.943622
0.943665
0.94371
0.943756
0.943803
0.943851
0.9439
0.943949
0.943998
0.944047
0.944096
0.944145
0.944193
0.94424
0.944287
0.944332
0.944376
0.944418
0.944459
0.944499
0.944536
0.944572
0.944605
0.944637
0.944666
0.944693
0.944717
0.944739
0.944758
0.944774
0.944788
0.944799
0.944808
0.944813
0.944816
0.944805
0.944802
0.944797
0.944788
0.944777
0.944763
0.944746
0.944727
0.944705
0.94468
0.944653
0.944624
0.944592
0.944558
0.944522
0.944484
0.944444
0.944402
0.944359
0.944314
0.944269
0.944221
0.944174
0.944125
0.944075
0.944026
0.943976
0.943926
0.943876
0.943827
0.943778
0.94373
0.943683
0.943637
0.943593
0.94355
0.943509
0.94347
0.943433
0.943399
0.943367
0.943338
0.943312
0.943289
0.943269
0.943252
0.943238
0.943228
0.943221
0.943217
0.943217
0.943221
0.943228
0.943238
0.943252
0.943269
0.943289
0.943312
0.943338
0.943367
0.943399
0.943433
0.94347
0.943509
0.94355
0.943593
0.943637
0.943683
0.94373
0.943778
0.943827
0.943876
0.943926
0.943976
0.944026
0.944075
0.944125
0.944174
0.944221
0.944269
0.944314
0.944359
0.944402
0.944444
0.944484
0.944522
0.944558
0.944592
0.944624
0.944653
0.94468
0.944705
0.944727
0.944746
0.944763
0.944777
0.944788
0.944797
0.944802
0.944805
0.944792
0.944789
0.944783
0.944774
0.944763
0.944749
0.944732
0.944712
0.94469
0.944665
0.944637
0.944607
0.944575
0.94454
0.944504
0.944465
0.944424
0.944382
0.944338
0.944293
0.944246
0.944198
0.944149
0.9441
0.944049
0.943999
0.943948
0.943897
0.943846
0.943796
0.943746
0.943697
0.943649
0.943602
0.943557
0.943513
0.943471
0.943431
0.943394
0.943358
0.943326
0.943296
0.943269
0.943245
0.943225
0.943207
0.943193
0.943183
0.943176
0.943172
0.943172
0.943176
0.943183
0.943193
0.943207
0.943225
0.943245
0.943269
0.943296
0.943326
0.943358
0.943394
0.943431
0.943471
0.943513
0.943557
0.943602
0.943649
0.943697
0.943746
0.943796
0.943846
0.943897
0.943948
0.943999
0.944049
0.9441
0.944149
0.944198
0.944246
0.944293
0.944338
0.944382
0.944424
0.944465
0.944504
0.94454
0.944575
0.944607
0.944637
0.944665
0.94469
0.944712
0.944732
0.944749
0.944763
0.944774
0.944783
0.944789
0.944792
0.944775
0.944773
0.944767
0.944758
0.944746
0.944732
0.944714
0.944694
0.944671
0.944646
0.944618
0.944587
0.944555
0.944519
0.944482
0.944443
0.944401
0.944358
0.944313
0.944267
0.944219
0.94417
0.94412
0.94407
0.944018
0.943966
0.943914
0.943862
0.94381
0.943758
0.943707
0.943657
0.943608
0.94356
0.943513
0.943468
0.943425
0.943384
0.943346
0.94331
0.943276
0.943245
0.943218
0.943193
0.943172
0.943154
0.943139
0.943129
0.943121
0.943118
0.943118
0.943121
0.943129
0.943139
0.943154
0.943172
0.943193
0.943218
0.943245
0.943276
0.94331
0.943346
0.943384
0.943425
0.943468
0.943513
0.94356
0.943608
0.943657
0.943707
0.943758
0.94381
0.943862
0.943914
0.943966
0.944018
0.94407
0.94412
0.94417
0.944219
0.944267
0.944313
0.944358
0.944401
0.944443
0.944482
0.944519
0.944555
0.944587
0.944618
0.944646
0.944671
0.944694
0.944714
0.944732
0.944746
0.944758
0.944767
0.944773
0.944775
0.944757
0.944754
0.944748
0.944739
0.944727
0.944712
0.944694
0.944674
0.94465
0.944624
0.944596
0.944565
0.944531
0.944495
0.944457
0.944417
0.944374
0.94433
0.944284
0.944237
0.944188
0.944138
0.944087
0.944035
0.943982
0.943929
0.943875
0.943821
0.943768
0.943715
0.943662
0.94361
0.94356
0.94351
0.943462
0.943416
0.943372
0.943329
0.94329
0.943252
0.943218
0.943186
0.943157
0.943132
0.94311
0.943091
0.943076
0.943065
0.943058
0.943054
0.943054
0.943058
0.943065
0.943076
0.943091
0.94311
0.943132
0.943157
0.943186
0.943218
0.943252
0.94329
0.943329
0.943372
0.943416
0.943462
0.94351
0.94356
0.94361
0.943662
0.943715
0.943768
0.943821
0.943875
0.943929
0.943982
0.944035
0.944087
0.944138
0.944188
0.944237
0.944284
0.94433
0.944374
0.944417
0.944457
0.944495
0.944531
0.944565
0.944596
0.944624
0.94465
0.944674
0.944694
0.944712
0.944727
0.944739
0.944748
0.944754
0.944757
0.944735
0.944732
0.944726
0.944717
0.944705
0.94469
0.944671
0.94465
0.944627
0.9446
0.944571
0.944539
0.944504
0.944468
0.944428
0.944387
0.944344
0.944298
0.944251
0.944202
0.944152
0.944101
0.944048
0.943995
0.94394
0.943885
0.94383
0.943775
0.94372
0.943665
0.943611
0.943557
0.943505
0.943454
0.943404
0.943356
0.94331
0.943267
0.943225
0.943187
0.943151
0.943118
0.943088
0.943062
0.943039
0.94302
0.943004
0.942992
0.942984
0.942981
0.942981
0.942984
0.942992
0.943004
0.94302
0.943039
0.943062
0.943088
0.943118
0.943151
0.943187
0.943225
0.943267
0.94331
0.943356
0.943404
0.943454
0.943505
0.943557
0.943611
0.943665
0.94372
0.943775
0.94383
0.943885
0.94394
0.943995
0.944048
0.944101
0.944152
0.944202
0.944251
0.944298
0.944344
0.944387
0.944428
0.944468
0.944504
0.944539
0.944571
0.9446
0.944627
0.94465
0.944671
0.94469
0.944705
0.944717
0.944726
0.944732
0.944735
0.944711
0.944708
0.944702
0.944693
0.94468
0.944665
0.944646
0.944624
0.9446
0.944573
0.944543
0.94451
0.944475
0.944437
0.944397
0.944354
0.944309
0.944263
0.944214
0.944164
0.944112
0.944059
0.944005
0.94395
0.943894
0.943837
0.94378
0.943723
0.943666
0.943609
0.943553
0.943498
0.943443
0.94339
0.943339
0.943289
0.943241
0.943196
0.943153
0.943112
0.943075
0.943041
0.94301
0.942982
0.942959
0.942938
0.942922
0.94291
0.942902
0.942898
0.942898
0.942902
0.94291
0.942922
0.942938
0.942959
0.942982
0.94301
0.943041
0.943075
0.943112
0.943153
0.943196
0.943241
0.943289
0.943339
0.94339
0.943443
0.943498
0.943553
0.943609
0.943666
0.943723
0.94378
0.943837
0.943894
0.94395
0.944005
0.944059
0.944112
0.944164
0.944214
0.944263
0.944309
0.944354
0.944397
0.944437
0.944475
0.94451
0.944543
0.944573
0.9446
0.944624
0.944646
0.944665
0.94468
0.944693
0.944702
0.944708
0.944711
0.944685
0.944682
0.944675
0.944666
0.944653
0.944637
0.944618
0.944596
0.944571
0.944543
0.944512
0.944478
0.944442
0.944403
0.944361
0.944318
0.944272
0.944223
0.944173
0.944122
0.944068
0.944013
0.943957
0.9439
0.943842
0.943784
0.943724
0.943665
0.943606
0.943547
0.943489
0.943431
0.943375
0.943319
0.943266
0.943214
0.943164
0.943117
0.943072
0.94303
0.942991
0.942955
0.942922
0.942894
0.942869
0.942848
0.942831
0.942818
0.942809
0.942805
0.942805
0.942809
0.942818
0.942831
0.942848
0.942869
0.942894
0.942922
0.942955
0.942991
0.94303
0.943072
0.943117
0.943164
0.943214
0.943266
0.943319
0.943375
0.943431
0.943489
0.943547
0.943606
0.943665
0.943724
0.943784
0.943842
0.9439
0.943957
0.944013
0.944068
0.944122
0.944173
0.944223
0.944272
0.944318
0.944361
0.944403
0.944442
0.944478
0.944512
0.944543
0.944571
0.944596
0.944618
0.944637
0.944653
0.944666
0.944675
0.944682
0.944685
0.944657
0.944653
0.944647
0.944637
0.944624
0.944607
0.944587
0.944565
0.944539
0.94451
0.944478
0.944443
0.944406
0.944366
0.944323
0.944278
0.94423
0.944181
0.944129
0.944075
0.94402
0.943963
0.943905
0.943846
0.943786
0.943725
0.943663
0.943602
0.94354
0.943479
0.943418
0.943358
0.943299
0.943241
0.943185
0.943131
0.943079
0.943029
0.942982
0.942938
0.942897
0.94286
0.942826
0.942795
0.942769
0.942747
0.942729
0.942716
0.942707
0.942702
0.942702
0.942707
0.942716
0.942729
0.942747
0.942769
0.942795
0.942826
0.94286
0.942897
0.942938
0.942982
0.943029
0.943079
0.943131
0.943185
0.943241
0.943299
0.943358
0.943418
0.943479
0.94354
0.943602
0.943663
0.943725
0.943786
0.943846
0.943905
0.943963
0.94402
0.944075
0.944129
0.944181
0.94423
0.944278
0.944323
0.944366
0.944406
0.944443
0.944478
0.94451
0.944539
0.944565
0.944587
0.944607
0.944624
0.944637
0.944647
0.944653
0.944657
0.944626
0.944622
0.944616
0.944605
0.944592
0.944575
0.944555
0.944531
0.944504
0.944475
0.944442
0.944406
0.944367
0.944326
0.944281
0.944235
0.944186
0.944134
0.94408
0.944025
0.943968
0.943909
0.943848
0.943787
0.943724
0.943661
0.943597
0.943533
0.943468
0.943404
0.943341
0.943278
0.943216
0.943156
0.943097
0.94304
0.942986
0.942934
0.942884
0.942838
0.942795
0.942755
0.942719
0.942688
0.94266
0.942637
0.942618
0.942603
0.942594
0.942589
0.942589
0.942594
0.942603
0.942618
0.942637
0.94266
0.942688
0.942719
0.942755
0.942795
0.942838
0.942884
0.942934
0.942986
0.94304
0.943097
0.943156
0.943216
0.943278
0.943341
0.943404
0.943468
0.943533
0.943597
0.943661
0.943724
0.943787
0.943848
0.943909
0.943968
0.944025
0.94408
0.944134
0.944186
0.944235
0.944281
0.944326
0.944367
0.944406
0.944442
0.944475
0.944504
0.944531
0.944555
0.944575
0.944592
0.944605
0.944616
0.944622
0.944626
0.944593
0.944589
0.944582
0.944572
0.944558
0.94454
0.944519
0.944495
0.944468
0.944437
0.944403
0.944366
0.944326
0.944283
0.944237
0.944188
0.944137
0.944084
0.944029
0.943971
0.943911
0.94385
0.943787
0.943723
0.943658
0.943592
0.943525
0.943458
0.943391
0.943324
0.943257
0.943192
0.943127
0.943063
0.943002
0.942942
0.942884
0.942829
0.942777
0.942728
0.942683
0.942641
0.942603
0.94257
0.942541
0.942516
0.942496
0.942481
0.94247
0.942465
0.942465
0.94247
0.942481
0.942496
0.942516
0.942541
0.94257
0.942603
0.942641
0.942683
0.942728
0.942777
0.942829
0.942884
0.942942
0.943002
0.943063
0.943127
0.943192
0.943257
0.943324
0.943391
0.943458
0.943525
0.943592
0.943658
0.943723
0.943787
0.94385
0.943911
0.943971
0.944029
0.944084
0.944137
0.944188
0.944237
0.944283
0.944326
0.944366
0.944403
0.944437
0.944468
0.944495
0.944519
0.94454
0.944558
0.944572
0.944582
0.944589
0.944593
0.944558
0.944554
0.944547
0.944536
0.944522
0.944504
0.944482
0.944457
0.944428
0.944397
0.944361
0.944323
0.944281
0.944237
0.944189
0.944139
0.944086
0.944031
0.943973
0.943913
0.943851
0.943787
0.943722
0.943655
0.943587
0.943518
0.943448
0.943378
0.943307
0.943237
0.943167
0.943098
0.94303
0.942963
0.942898
0.942835
0.942775
0.942717
0.942662
0.94261
0.942562
0.942518
0.942478
0.942442
0.942411
0.942385
0.942363
0.942347
0.942336
0.942331
0.942331
0.942336
0.942347
0.942363
0.942385
0.942411
0.942442
0.942478
0.942518
0.942562
0.94261
0.942662
0.942717
0.942775
0.942835
0.942898
0.942963
0.94303
0.943098
0.943167
0.943237
0.943307
0.943378
0.943448
0.943518
0.943587
0.943655
0.943722
0.943787
0.943851
0.943913
0.943973
0.944031
0.944086
0.944139
0.944189
0.944237
0.944281
0.944323
0.944361
0.944397
0.944428
0.944457
0.944482
0.944504
0.944522
0.944536
0.944547
0.944554
0.944558
0.944521
0.944518
0.94451
0.944499
0.944484
0.944465
0.944443
0.944417
0.944387
0.944354
0.944318
0.944278
0.944235
0.944188
0.944139
0.944087
0.944032
0.943974
0.943914
0.943852
0.943787
0.94372
0.943652
0.943582
0.943511
0.943439
0.943366
0.943292
0.943218
0.943144
0.943071
0.942998
0.942926
0.942856
0.942787
0.942721
0.942657
0.942595
0.942537
0.942482
0.942431
0.942384
0.942341
0.942304
0.942272
0.942244
0.942222
0.942206
0.942195
0.942189
0.942189
0.942195
0.942206
0.942222
0.942244
0.942272
0.942304
0.942341
0.942384
0.942431
0.942482
0.942537
0.942595
0.942657
0.942721
0.942787
0.942856
0.942926
0.942998
0.943071
0.943144
0.943218
0.943292
0.943366
0.943439
0.943511
0.943582
0.943652
0.94372
0.943787
0.943852
0.943914
0.943974
0.944032
0.944087
0.944139
0.944188
0.944235
0.944278
0.944318
0.944354
0.944387
0.944417
0.944443
0.944465
0.944484
0.944499
0.94451
0.944518
0.944521
0.944483
0.944479
0.944471
0.944459
0.944444
0.944424
0.944401
0.944374
0.944344
0.944309
0.944272
0.94423
0.944186
0.944137
0.944086
0.944032
0.943975
0.943915
0.943852
0.943787
0.943719
0.94365
0.943578
0.943505
0.943431
0.943355
0.943278
0.943201
0.943123
0.943045
0.942968
0.942891
0.942816
0.942741
0.942669
0.942598
0.94253
0.942465
0.942403
0.942345
0.942292
0.942243
0.9422
0.942162
0.94213
0.942103
0.942081
0.942065
0.942054
0.942048
0.942048
0.942054
0.942065
0.942081
0.942103
0.94213
0.942162
0.9422
0.942243
0.942292
0.942345
0.942403
0.942465
0.94253
0.942598
0.942669
0.942741
0.942816
0.942891
0.942968
0.943045
0.943123
0.943201
0.943278
0.943355
0.943431
0.943505
0.943578
0.94365
0.943719
0.943787
0.943852
0.943915
0.943975
0.944032
0.944086
0.944137
0.944186
0.94423
0.944272
0.944309
0.944344
0.944374
0.944401
0.944424
0.944444
0.944459
0.944471
0.944479
0.944483
0.944443
0.944439
0.94443
0.944418
0.944402
0.944382
0.944358
0.94433
0.944298
0.944263
0.944223
0.944181
0.944134
0.944084
0.944031
0.943974
0.943915
0.943852
0.943787
0.943719
0.943648
0.943575
0.943501
0.943424
0.943346
0.943266
0.943186
0.943104
0.943022
0.942941
0.942859
0.942778
0.942698
0.942619
0.942542
0.942467
0.942395
0.942327
0.942264
0.942205
0.942152
0.942104
0.942061
0.942025
0.941994
0.941968
0.941947
0.941932
0.941922
0.941917
0.941917
0.941922
0.941932
0.941947
0.941968
0.941994
0.942025
0.942061
0.942104
0.942152
0.942205
0.942264
0.942327
0.942395
0.942467
0.942542
0.942619
0.942698
0.942778
0.942859
0.942941
0.943022
0.943104
0.943186
0.943266
0.943346
0.943424
0.943501
0.943575
0.943648
0.943719
0.943787
0.943852
0.943915
0.943974
0.944031
0.944084
0.944134
0.944181
0.944223
0.944263
0.944298
0.94433
0.944358
0.944382
0.944402
0.944418
0.94443
0.944439
0.944443
0.944401
0.944397
0.944388
0.944376
0.944359
0.944338
0.944313
0.944284
0.944251
0.944214
0.944173
0.944129
0.94408
0.944029
0.943973
0.943914
0.943852
0.943787
0.943718
0.943647
0.943574
0.943497
0.943419
0.943339
0.943256
0.943173
0.943088
0.943002
0.942916
0.94283
0.942744
0.942658
0.942573
0.942489
0.942408
0.94233
0.942257
0.942189
0.942126
0.942069
0.942018
0.941972
0.941932
0.941898
0.941868
0.941844
0.941825
0.94181
0.941801
0.941796
0.941796
0.941801
0.94181
0.941825
0.941844
0.941868
0.941898
0.941932
0.941972
0.942018
0.942069
0.942126
0.942189
0.942257
0.94233
0.942408
0.942489
0.942573
0.942658
0.942744
0.94283
0.942916
0.943002
0.943088
0.943173
0.943256
0.943339
0.943419
0.943497
0.943574
0.943647
0.943718
0.943787
0.943852
0.943914
0.943973
0.944029
0.94408
0.944129
0.944173
0.944214
0.944251
0.944284
0.944313
0.944338
0.944359
0.944376
0.944388
0.944397
0.944401
0.944358
0.944354
0.944345
0.944332
0.944314
0.944293
0.944267
0.944237
0.944202
0.944164
0.944122
0.944075
0.944025
0.943971
0.943913
0.943852
0.943787
0.943719
0.943647
0.943573
0.943496
0.943416
0.943334
0.943249
0.943163
0.943075
0.942986
0.942896
0.942805
0.942713
0.942622
0.942531
0.942441
0.942355
0.942272
0.942194
0.942122
0.942057
0.941997
0.941943
0.941895
0.941852
0.941814
0.941782
0.941754
0.941731
0.941713
0.9417
0.941691
0.941686
0.941686
0.941691
0.9417
0.941713
0.941731
0.941754
0.941782
0.941814
0.941852
0.941895
0.941943
0.941997
0.942057
0.942122
0.942194
0.942272
0.942355
0.942441
0.942531
0.942622
0.942713
0.942805
0.942896
0.942986
0.943075
0.943163
0.943249
0.943334
0.943416
0.943496
0.943573
0.943647
0.943719
0.943787
0.943852
0.943913
0.943971
0.944025
0.944075
0.944122
0.944164
0.944202
0.944237
0.944267
0.944293
0.944314
0.944332
0.944345
0.944354
0.944358
0.944314
0.944309
0.9443
0.944287
0.944269
0.944246
0.944219
0.944188
0.944152
0.944112
0.944068
0.94402
0.943968
0.943911
0.943851
0.943787
0.943719
0.943648
0.943574
0.943496
0.943415
0.943331
0.943245
0.943156
0.943066
0.942973
0.942879
0.942784
0.942687
0.942591
0.942494
0.942399
0.942308
0.942221
0.94214
0.942065
0.941997
0.941935
0.941878
0.941827
0.941782
0.941742
0.941707
0.941676
0.941651
0.94163
0.941613
0.941601
0.941592
0.941588
0.941588
0.941592
0.941601
0.941613
0.94163
0.941651
0.941676
0.941707
0.941742
0.941782
0.941827
0.941878
0.941935
0.941997
0.942065
0.94214
0.942221
0.942308
0.942399
0.942494
0.942591
0.942687
0.942784
0.942879
0.942973
0.943066
0.943156
0.943245
0.943331
0.943415
0.943496
0.943574
0.943648
0.943719
0.943787
0.943851
0.943911
0.943968
0.94402
0.944068
0.944112
0.944152
0.944188
0.944219
0.944246
0.944269
0.944287
0.9443
0.944309
0.944314
0.944268
0.944264
0.944254
0.94424
0.944221
0.944198
0.94417
0.944138
0.944101
0.944059
0.944013
0.943963
0.943909
0.94385
0.943787
0.94372
0.94365
0.943575
0.943497
0.943416
0.943331
0.943244
0.943153
0.94306
0.942964
0.942867
0.942767
0.942667
0.942565
0.942463
0.942364
0.942268
0.942178
0.942094
0.942017
0.941946
0.941881
0.941823
0.94177
0.941722
0.94168
0.941643
0.941611
0.941583
0.941559
0.94154
0.941525
0.941513
0.941506
0.941502
0.941502
0.941506
0.941513
0.941525
0.94154
0.941559
0.941583
0.941611
0.941643
0.94168
0.941722
0.94177
0.941823
0.941881
0.941946
0.942017
0.942094
0.942178
0.942268
0.942364
0.942463
0.942565
0.942667
0.942767
0.942867
0.942964
0.94306
0.943153
0.943244
0.943331
0.943416
0.943497
0.943575
0.94365
0.94372
0.943787
0.94385
0.943909
0.943963
0.944013
0.944059
0.944101
0.944138
0.94417
0.944198
0.944221
0.94424
0.944254
0.944264
0.944268
0.944222
0.944217
0.944207
0.944193
0.944174
0.944149
0.94412
0.944087
0.944048
0.944005
0.943957
0.943905
0.943848
0.943787
0.943722
0.943652
0.943578
0.943501
0.943419
0.943334
0.943245
0.943153
0.943058
0.94296
0.942859
0.942757
0.942652
0.942545
0.942439
0.942335
0.942236
0.942142
0.942056
0.941976
0.941903
0.941837
0.941776
0.941721
0.941672
0.941628
0.941589
0.941555
0.941526
0.9415
0.941479
0.941462
0.941448
0.941438
0.941432
0.941428
0.941428
0.941432
0.941438
0.941448
0.941462
0.941479
0.9415
0.941526
0.941555
0.941589
0.941628
0.941672
0.941721
0.941776
0.941837
0.941903
0.941976
0.942056
0.942142
0.942236
0.942335
0.942439
0.942545
0.942652
0.942757
0.942859
0.94296
0.943058
0.943153
0.943245
0.943334
0.943419
0.943501
0.943578
0.943652
0.943722
0.943787
0.943848
0.943905
0.943957
0.944005
0.944048
0.944087
0.94412
0.944149
0.944174
0.944193
0.944207
0.944217
0.944222
0.944175
0.94417
0.94416
0.944145
0.944125
0.9441
0.94407
0.944035
0.943995
0.94395
0.9439
0.943846
0.943787
0.943723
0.943655
0.943582
0.943505
0.943424
0.943339
0.943249
0.943156
0.94306
0.94296
0.942857
0.942751
0.942643
0.942532
0.942421
0.942314
0.942211
0.942115
0.942026
0.941944
0.941869
0.9418
0.941737
0.941681
0.94163
0.941585
0.941545
0.94151
0.941479
0.941452
0.94143
0.941411
0.941396
0.941384
0.941376
0.94137
0.941367
0.941367
0.94137
0.941376
0.941384
0.941396
0.941411
0.94143
0.941452
0.941479
0.94151
0.941545
0.941585
0.94163
0.941681
0.941737
0.9418
0.941869
0.941944
0.942026
0.942115
0.942211
0.942314
0.942421
0.942532
0.942643
0.942751
0.942857
0.94296
0.94306
0.943156
0.943249
0.943339
0.943424
0.943505
0.943582
0.943655
0.943723
0.943787
0.943846
0.9439
0.94395
0.943995
0.944035
0.94407
0.9441
0.944125
0.944145
0.94416
0.94417
0.944175
0.944128
0.944122
0.944112
0.944096
0.944075
0.944049
0.944018
0.943982
0.94394
0.943894
0.943842
0.943786
0.943724
0.943658
0.943587
0.943511
0.943431
0.943346
0.943256
0.943163
0.943066
0.942964
0.942859
0.942751
0.94264
0.942525
0.942411
0.942299
0.942193
0.942094
0.942002
0.941918
0.941841
0.94177
0.941706
0.941648
0.941596
0.94155
0.941509
0.941473
0.941441
0.941414
0.941391
0.941372
0.941356
0.941343
0.941333
0.941326
0.941321
0.941319
0.941319
0.941321
0.941326
0.941333
0.941343
0.941356
0.941372
0.941391
0.941414
0.941441
0.941473
0.941509
0.94155
0.941596
0.941648
0.941706
0.94177
0.941841
0.941918
0.942002
0.942094
0.942193
0.942299
0.942411
0.942525
0.94264
0.942751
0.942859
0.942964
0.943066
0.943163
0.943256
0.943346
0.943431
0.943511
0.943587
0.943658
0.943724
0.943786
0.943842
0.943894
0.94394
0.943982
0.944018
0.944049
0.944075
0.944096
0.944112
0.944122
0.944128
0.94408
0.944074
0.944064
0.944047
0.944026
0.943999
0.943966
0.943929
0.943885
0.943837
0.943784
0.943725
0.943661
0.943592
0.943518
0.943439
0.943355
0.943266
0.943173
0.943075
0.942973
0.942867
0.942757
0.942643
0.942525
0.942407
0.942292
0.942182
0.94208
0.941986
0.941899
0.94182
0.941747
0.941681
0.941622
0.941569
0.941521
0.94148
0.941443
0.941412
0.941385
0.941362
0.941342
0.941326
0.941314
0.941303
0.941295
0.94129
0.941286
0.941284
0.941284
0.941286
0.94129
0.941295
0.941303
0.941314
0.941326
0.941342
0.941362
0.941385
0.941412
0.941443
0.94148
0.941521
0.941569
0.941622
0.941681
0.941747
0.94182
0.941899
0.941986
0.94208
0.942182
0.942292
0.942407
0.942525
0.942643
0.942757
0.942867
0.942973
0.943075
0.943173
0.943266
0.943355
0.943439
0.943518
0.943592
0.943661
0.943725
0.943784
0.943837
0.943885
0.943929
0.943966
0.943999
0.944026
0.944047
0.944064
0.944074
0.94408
0.944032
0.944026
0.944015
0.943998
0.943976
0.943948
0.943914
0.943875
0.94383
0.94378
0.943724
0.943663
0.943597
0.943525
0.943448
0.943366
0.943278
0.943186
0.943088
0.942986
0.942879
0.942767
0.942652
0.942532
0.942411
0.942292
0.942179
0.942074
0.941976
0.941887
0.941805
0.94173
0.941662
0.941602
0.941547
0.941499
0.941457
0.941421
0.941389
0.941362
0.94134
0.941321
0.941306
0.941294
0.941284
0.941277
0.941271
0.941268
0.941265
0.941264
0.941264
0.941265
0.941268
0.941271
0.941277
0.941284
0.941294
0.941306
0.941321
0.94134
0.941362
0.941389
0.941421
0.941457
0.941499
0.941547
0.941602
0.941662
0.94173
0.941805
0.941887
0.941976
0.942074
0.942179
0.942292
0.942411
0.942532
0.942652
0.942767
0.942879
0.942986
0.943088
0.943186
0.943278
0.943366
0.943448
0.943525
0.943597
0.943663
0.943724
0.94378
0.94383
0.943875
0.943914
0.943948
0.943976
0.943998
0.944015
0.944026
0.944032
0.943984
0.943978
0.943966
0.943949
0.943926
0.943897
0.943862
0.943821
0.943775
0.943723
0.943665
0.943602
0.943533
0.943458
0.943378
0.943292
0.943201
0.943104
0.943002
0.942896
0.942784
0.942667
0.942545
0.942421
0.942299
0.942182
0.942074
0.941973
0.941881
0.941796
0.941719
0.941649
0.941587
0.941532
0.941483
0.94144
0.941403
0.941372
0.941346
0.941325
0.941307
0.941293
0.941283
0.941275
0.941269
0.941265
0.941262
0.94126
0.941259
0.941258
0.941258
0.941259
0.94126
0.941262
0.941265
0.941269
0.941275
0.941283
0.941293
0.941307
0.941325
0.941346
0.941372
0.941403
0.94144
0.941483
0.941532
0.941587
0.941649
0.941719
0.941796
0.941881
0.941973
0.942074
0.942182
0.942299
0.942421
0.942545
0.942667
0.942784
0.942896
0.943002
0.943104
0.943201
0.943292
0.943378
0.943458
0.943533
0.943602
0.943665
0.943723
0.943775
0.943821
0.943862
0.943897
0.943926
0.943949
0.943966
0.943978
0.943984
0.943936
0.94393
0.943918
0.9439
0.943876
0.943846
0.94381
0.943768
0.94372
0.943666
0.943606
0.94354
0.943468
0.943391
0.943307
0.943218
0.943123
0.943022
0.942916
0.942805
0.942687
0.942565
0.942439
0.942314
0.942193
0.94208
0.941976
0.941881
0.941793
0.941713
0.941642
0.941577
0.941521
0.941471
0.941428
0.941391
0.94136
0.941335
0.941315
0.941299
0.941287
0.941278
0.941273
0.941269
0.941268
0.941267
0.941267
0.941267
0.941268
0.941268
0.941268
0.941268
0.941267
0.941267
0.941267
0.941268
0.941269
0.941273
0.941278
0.941287
0.941299
0.941315
0.941335
0.94136
0.941391
0.941428
0.941471
0.941521
0.941577
0.941642
0.941713
0.941793
0.941881
0.941976
0.94208
0.942193
0.942314
0.942439
0.942565
0.942687
0.942805
0.942916
0.943022
0.943123
0.943218
0.943307
0.943391
0.943468
0.94354
0.943606
0.943666
0.94372
0.943768
0.94381
0.943846
0.943876
0.9439
0.943918
0.94393
0.943936
0.943889
0.943883
0.94387
0.943851
0.943827
0.943796
0.943758
0.943715
0.943665
0.943609
0.943547
0.943479
0.943404
0.943324
0.943237
0.943144
0.943045
0.942941
0.94283
0.942713
0.942591
0.942463
0.942335
0.942211
0.942094
0.941986
0.941887
0.941796
0.941713
0.941639
0.941573
0.941514
0.941463
0.941419
0.941382
0.941352
0.941327
0.941308
0.941295
0.941285
0.941279
0.941277
0.941276
0.941278
0.941281
0.941285
0.941288
0.941291
0.941293
0.941294
0.941294
0.941293
0.941291
0.941288
0.941285
0.941281
0.941278
0.941276
0.941277
0.941279
0.941285
0.941295
0.941308
0.941327
0.941352
0.941382
0.941419
0.941463
0.941514
0.941573
0.941639
0.941713
0.941796
0.941887
0.941986
0.942094
0.942211
0.942335
0.942463
0.942591
0.942713
0.94283
0.942941
0.943045
0.943144
0.943237
0.943324
0.943404
0.943479
0.943547
0.943609
0.943665
0.943715
0.943758
0.943796
0.943827
0.943851
0.94387
0.943883
0.943889
0.943842
0.943836
0.943823
0.943803
0.943778
0.943746
0.943707
0.943662
0.943611
0.943553
0.943489
0.943418
0.943341
0.943257
0.943167
0.943071
0.942968
0.942859
0.942744
0.942622
0.942494
0.942364
0.942236
0.942115
0.942002
0.941899
0.941805
0.941719
0.941642
0.941573
0.941512
0.94146
0.941415
0.941377
0.941347
0.941323
0.941305
0.941293
0.941286
0.941283
0.941284
0.941288
0.941294
0.941302
0.941309
0.941316
0.941322
0.941327
0.941331
0.941332
0.941332
0.941331
0.941327
0.941322
0.941316
0.941309
0.941302
0.941294
0.941288
0.941284
0.941283
0.941286
0.941293
0.941305
0.941323
0.941347
0.941377
0.941415
0.94146
0.941512
0.941573
0.941642
0.941719
0.941805
0.941899
0.942002
0.942115
0.942236
0.942364
0.942494
0.942622
0.942744
0.942859
0.942968
0.943071
0.943167
0.943257
0.943341
0.943418
0.943489
0.943553
0.943611
0.943662
0.943707
0.943746
0.943778
0.943803
0.943823
0.943836
0.943842
0.943796
0.943789
0.943776
0.943756
0.94373
0.943697
0.943657
0.94361
0.943557
0.943498
0.943431
0.943358
0.943278
0.943192
0.943098
0.942998
0.942891
0.942778
0.942658
0.942531
0.942399
0.942268
0.942142
0.942026
0.941918
0.94182
0.94173
0.941649
0.941577
0.941514
0.94146
0.941413
0.941375
0.941344
0.94132
0.941303
0.941293
0.941288
0.941289
0.941294
0.941302
0.941313
0.941324
0.941336
0.941347
0.941357
0.941366
0.941372
0.941377
0.941379
0.941379
0.941377
0.941372
0.941366
0.941357
0.941347
0.941336
0.941324
0.941313
0.941302
0.941294
0.941289
0.941288
0.941293
0.941303
0.94132
0.941344
0.941375
0.941413
0.94146
0.941514
0.941577
0.941649
0.94173
0.94182
0.941918
0.942026
0.942142
0.942268
0.942399
0.942531
0.942658
0.942778
0.942891
0.942998
0.943098
0.943192
0.943278
0.943358
0.943431
0.943498
0.943557
0.94361
0.943657
0.943697
0.94373
0.943756
0.943776
0.943789
0.943796
0.943751
0.943744
0.943731
0.94371
0.943683
0.943649
0.943608
0.94356
0.943505
0.943443
0.943375
0.943299
0.943216
0.943127
0.94303
0.942926
0.942816
0.942698
0.942573
0.942441
0.942308
0.942178
0.942056
0.941944
0.941841
0.941747
0.941662
0.941587
0.941521
0.941463
0.941415
0.941375
0.941343
0.941319
0.941303
0.941294
0.941291
0.941295
0.941304
0.941316
0.941331
0.941347
0.941363
0.941378
0.941392
0.941404
0.941414
0.941422
0.941427
0.94143
0.94143
0.941427
0.941422
0.941414
0.941404
0.941392
0.941378
0.941363
0.941347
0.941331
0.941316
0.941304
0.941295
0.941291
0.941294
0.941303
0.941319
0.941343
0.941375
0.941415
0.941463
0.941521
0.941587
0.941662
0.941747
0.941841